ITEM: TIMESTEP
100
ITEM: NUMBER OF ATOMS
30
ITEM: BOX BOUNDS f f f
0 1e-08
0 1e-08
0 1e-08
ITEM: ATOMS radius x y z v_x v_y v_z
1.199999999999999992e-10 5.022762329717807718e-09 1.221280909697008152e-09 9.671197289909595347e-09 5.050396586091771951e+02 4.976806634985083519e+02 -5.338356981713166078e+02
1.199999999999999992e-10 4.319156099248626149e-09 8.814989546538938011e-09 9.385233776834372920e-09 3.245591798753626335e+03 8.690527323865375138e+02 -8.975582305439645552e+02
1.199999999999999992e-10 6.885968729790992844e-09 3.490607410407983724e-10 1.833644048471912328e-10 1.056409369708558643e+03 -4.210738469985250845e+02 -1.503492208704281666e+03
1.199999999999999992e-10 5.715828874655877307e-09 5.231957727293696868e-09 5.437488415761530677e-09 6.410177969181621620e+02 -2.146848886559783409e+02 2.442754389173200025e+02
1.199999999999999992e-10 9.664553459476010648e-09 5.756251376237109688e-09 2.314540198281036190e-09 8.302310780943781765e+01 1.586240579368364934e+03 6.514712825389540285e+02
1.199999999999999992e-10 2.403880065199867470e-09 7.600636425167340319e-09 7.422160267131147904e-09 -1.222631292519143017e+03 -2.120047627788472937e+02 -5.963845648349229123e+02
1.199999999999999992e-10 2.121732178455738236e-09 1.984352477293367803e-09 4.823132567196016690e-09 1.098551077010820791e+03 -3.825338050995364938e+02 3.398423141431641170e+02
1.199999999999999992e-10 9.375105983304860120e-09 3.753241573983776608e-09 2.184865066905670289e-10 8.204844933915455840e+02 -1.263385871855060714e+03 1.443455828010562527e+03
1.199999999999999992e-10 3.747158649878360296e-09 8.118775720372094708e-09 6.557556579384890622e-09 -1.966086430959401241e+03 2.408491225433300542e+01 -1.384357152967887487e+03
1.199999999999999992e-10 2.597492136378168917e-09 1.631722510661108223e-09 4.474127030144316072e-09 -3.091427451060636145e+02 -6.034522413427952188e+02 -1.502660186839491871e+03
1.199999999999999992e-10 8.955765124575355953e-10 9.941752459702916553e-09 1.380437265683613655e-09 -1.645209864028843185e+02 1.350944673512574127e+03 -2.192491600030247355e+03
1.199999999999999992e-10 4.292383939055503973e-10 3.526730281621876485e-09 4.103312686719690127e-10 1.297607336282499091e+03 -2.699892115975064826e+02 -1.000118005773196160e+03
1.199999999999999992e-10 6.138384820504328731e-09 3.397097238455648413e-10 1.907620232227511017e-09 -4.430715650535197483e+02 1.813073406034119671e+03 1.692085392097486874e+03
1.199999999999999992e-10 2.471370284347949493e-09 7.197233796026130807e-09 5.493566018657110881e-09 1.479306802251498766e+03 -1.149273857378164394e+03 -2.057243858127009844e+03
1.199999999999999992e-10 5.004441695605821643e-10 3.231933714415280636e-09 2.510675530214638067e-09 -1.326347298262815571e+02 -2.137801908294360146e+03 1.990750157150861014e+03
1.199999999999999992e-10 5.823171311377508948e-09 8.467572482434049920e-09 3.565214654196115783e-09 4.466306552369518386e+02 -2.827979758534564780e+01 2.045905236894346217e+03
1.199999999999999992e-10 6.534984511018930321e-09 1.531238722743954406e-09 5.861774962887171237e-09 2.014239206971246858e+03 1.872685546189610704e+03 9.098331757501385937e+02
1.199999999999999992e-10 5.464630300830615967e-09 4.998018224801882723e-09 9.119293554000374633e-10 -2.453125082538136212e+03 -2.138488196451557542e+03 -4.756595305980388275e+02
1.199999999999999992e-10 1.147812983710554000e-09 6.306230336691333294e-09 2.633411173695624548e-09 3.231328943221182612e+02 3.687399594294049621e+03 -1.965478063655470805e+03
1.199999999999999992e-10 6.772761038146158968e-09 3.645022360173859778e-09 7.160063894101149839e-09 -1.954487943874672510e+03 -1.201090870520295539e+03 7.331118508740547668e+02
1.199999999999999992e-10 1.411795526800415312e-09 7.579252467850782423e-09 4.558642538264159862e-09 -9.475902646274483914e+02 -7.513337009894264611e+02 3.751425287774255821e+02
1.199999999999999992e-10 7.023699232671953991e-09 5.061151199593688068e-09 9.477413603966349815e-09 1.170569746949809996e+03 2.850549596530032659e+02 9.300860210261630527e+02
1.199999999999999992e-10 9.251662413886076798e-09 1.247103032906528231e-09 6.154532501660344445e-09 -3.070862113583464748e+02 -1.821991640350110799e+02 -9.896538355039612043e+02
1.199999999999999992e-10 2.118873470269692824e-09 9.793426827861333112e-09 9.044950713855061944e-09 8.587139501536082662e+02 9.400537441651065365e+02 1.906385665515789015e+03
1.199999999999999992e-10 7.947217596373151997e-09 2.662466150922736333e-09 8.047777553024784165e-09 2.707727249374613621e+00 -5.984908905034600366e+02 -8.687262597233541328e+00
1.199999999999999992e-10 6.494027892833240081e-09 6.616944151753709941e-09 1.377781552336110096e-09 1.217770332470765425e+03 -8.711567121306785566e+01 8.040635719575327585e+02
1.199999999999999992e-10 1.522714711423378897e-10 5.720563683268843036e-09 9.148866697047549460e-09 3.676356197127690848e+02 8.679768671093062267e+02 1.357733025776796239e+03
1.199999999999999992e-10 2.680545467584041276e-09 7.301372987498182588e-09 3.052847685315761915e-09 3.137571989872405084e+03 5.965750200251980004e+02 1.557385264070569065e+03
1.199999999999999992e-10 1.181440802965089551e-09 3.151419868299114726e-09 8.392635380820352421e-09 2.820670884543373518e+02 9.034367686078081761e+02 -2.316210432833524635e+01
1.199999999999999992e-10 4.231407424090766769e-09 6.070734357771062338e-09 3.131111705893628343e-10 -1.351310643109308558e+03 2.641353312345538143e+03 2.394682507564995831e+03
ITEM: TIMESTEP
200
ITEM: NUMBER OF ATOMS
30
ITEM: BOX BOUNDS f f f
0 1e-08
0 1e-08
0 1e-08
ITEM: ATOMS radius x y z v_x v_y v_z
1.199999999999999992e-10 4.985808174668352282e-09 1.200295363276235853e-09 9.595246590865447888e-09 -1.863252345264027554e+03 7.017216860624796482e+02 1.315636830978541411e+03
1.199999999999999992e-10 4.427298255790079480e-09 8.781744252855069329e-09 9.297116928499051847e-09 1.105182040022253204e+03 2.753665448257261801e+02 -1.196276800018221820e+03
1.199999999999999992e-10 7.015067871807484842e-09 3.351944096778398354e-10 2.451068185431372002e-11 -1.337752039810590077e+02 -2.135400795304531130e+02 -6.547047704412950679e+02
1.199999999999999992e-10 5.702485924799623940e-09 5.163465804766600219e-09 5.352883834951328330e-09 -1.323018071888190889e+03 -8.360987183603336916e+02 -9.300628430179742168e+01
1.199999999999999992e-10 9.421604961547557715e-09 5.828665358923366845e-09 2.535955824187184941e-09 -3.768938255932398533e+03 6.680578734653289530e+02 2.470414069857465620e+03
1.199999999999999992e-10 2.342434891435353384e-09 7.506725245986071257e-09 7.334471883216935083e-09 -1.081110832649270378e+03 -1.704498485452754949e+03 -1.011628234342774704e+02
1.199999999999999992e-10 2.255057378437360055e-09 2.055726603626968243e-09 4.796888818955681667e-09 1.526731909343407551e+03 1.364609576235828627e+03 -1.691244157669344531e+03
1.199999999999999992e-10 9.432234829583436410e-09 3.788981467615300759e-09 2.572919945993680392e-10 -9.383341174605978949e+02 8.057748379225599820e+02 -5.452544628317498336e+02
1.199999999999999992e-10 3.590601879144026976e-09 7.970072354236246986e-09 6.608489868996382421e-09 -2.456086358612386107e+02 -1.511499221148285187e+03 2.650991697879743697e+03
1.199999999999999992e-10 2.695775207324367194e-09 1.642809431835208116e-09 4.316716559882547321e-09 1.765625261444567514e+03 1.922667256318664158e+03 -8.955202900911071993e+02
1.199999999999999992e-10 7.185351158558165054e-10 9.928309442687910168e-09 1.349093998975090314e-09 -3.051362797603598665e+03 -4.742116549661628824e+02 1.315825575216588959e+03
1.199999999999999992e-10 4.931937935676081219e-10 3.503801688353348635e-09 3.374379705538048949e-10 -7.507981936196515562e+02 -1.774859517879843452e+03 -6.502426484300267475e+02
1.199999999999999992e-10 6.282893078142330264e-09 2.686748033416811965e-10 2.038001148709848206e-09 7.990871951147354366e+02 -1.419342453881994743e+03 2.515361362040783661e+03
1.199999999999999992e-10 2.578219397731734307e-09 7.082673489862319036e-09 5.321353580557338432e-09 -4.846698373481048066e+02 -4.959217231407156419e+02 -1.247418784975614926e+03
1.199999999999999992e-10 6.749297993182856156e-10 3.136816297202924730e-09 2.519506027652283179e-09 5.898998244102569970e+02 9.006905041971134551e+01 -1.853291053107894868e+03
1.199999999999999992e-10 6.060250629958861154e-09 8.537455870887580526e-09 3.600596115867375301e-09 3.852253337317340993e+03 1.042584648415469474e+03 4.318328969088179292e+01
1.199999999999999992e-10 6.496755851683129875e-09 1.597085359660239412e-09 5.854720899850633205e-09 -1.755077454772944066e+03 -1.359954980007498534e+03 -1.282692807773854611e+03
1.199999999999999992e-10 5.435178470201231381e-09 5.058759292727687993e-09 8.309566563590077863e-10 2.963041940786063151e+02 1.882249315447527124e+03 9.430814506932081258e+02
1.199999999999999992e-10 1.212855890576746078e-09 6.424524487304917769e-09 2.550050131301782374e-09 -9.638535415423173163e+02 2.080406112784809920e+03 -5.296986843164175980e+02
1.199999999999999992e-10 6.671623694676859602e-09 3.544392142628615811e-09 7.132178605862539652e-09 -9.909924150438854440e+00 -3.802232654690743630e+02 -1.104424648412092893e+03
1.199999999999999992e-10 1.382012623418741561e-09 7.446995162690740340e-09 4.545367002888888446e-09 -1.252439645740103970e+03 -6.839733443207846904e+02 5.935603829708838930e+02
1.199999999999999992e-10 7.031426098897031150e-09 4.932928423698025324e-09 9.527067759801991792e-09 1.011765398971333752e+03 -3.121329105583382898e+03 6.559022973030130288e+02
1.199999999999999992e-10 9.178031480834645062e-09 1.432044638734151384e-09 5.998228230021003409e-09 -2.444286264810406010e+03 2.807039470081876061e+03 3.613496175842253706e+02
1.199999999999999992e-10 2.065661793324743275e-09 9.857536439304913641e-09 9.235808364077391524e-09 -1.569009257738376562e+02 1.874757998899208360e+03 -7.542336386844743856e+01
1.199999999999999992e-10 7.940682514134396909e-09 2.496805941480845505e-09 7.878250327513962627e-09 -1.054072482603291064e+03 -2.728184661144849542e+03 -2.108972882827068133e+03
1.199999999999999992e-10 6.658280387889472001e-09 6.636537379374425874e-09 1.360511874733924191e-09 3.428334556610374875e+03 1.419977615628700732e+03 -3.273678339009049978e+02
1.199999999999999992e-10 1.807411901416230560e-10 5.611826861786707764e-09 9.263418735310354545e-09 2.028191707727125106e+02 -1.275100745063705062e+03 4.903273653135926793e+02
1.199999999999999992e-10 2.941742800039779819e-09 7.497042837983761142e-09 3.262601000487300569e-09 2.952303263228336618e+03 2.536862918335636095e+03 -2.660072500754267821e+02
1.199999999999999992e-10 1.144427443429662788e-09 3.314246135842184485e-09 8.387305050229237944e-09 -6.207761473885746000e+02 2.967069183851885555e+03 7.637247719737119951e+02
1.199999999999999992e-10 4.270007460097298029e-09 6.138460640269392743e-09 3.880788546423762531e-10 1.031225114193706077e+03 -1.631945513352920443e+03 8.978331138932135502e+01
ITEM: TIMESTEP
300
ITEM: NUMBER OF ATOMS
30
ITEM: BOX BOUNDS f f f
0 1e-08
0 1e-08
0 1e-08
ITEM: ATOMS radius x y z v_x v_y v_z
1.199999999999999992e-10 5.041373111941388692e-09 1.238642775867890338e-09 9.638389005271039645e-09 1.831730802599974595e+03 9.171290475194978171e+02 -1.050466272111465059e+03
1.199999999999999992e-10 4.502630403556708214e-09 8.791633464201142667e-09 9.073590074203888618e-09 -4.512263571785553040e+02 -1.134628826004415259e+03 -2.184366255122177336e+03
1.199999999999999992e-10 7.070992661686446798e-09 3.364721406765902076e-10 5.286552139193345129e-11 2.028446726692791344e+03 8.160630366128824562e+02 -8.220519195601341380e+02
1.199999999999999992e-10 5.646687622874384195e-09 5.153070379437683765e-09 5.424113713545944596e-09 -7.453786886563991629e+02 8.259862721024780967e+02 8.059829834895016347e+02
1.199999999999999992e-10 9.276548054226112053e-09 5.960886935240646045e-09 2.788039243939139280e-09 -7.312368174383361747e+02 2.070023303955049414e+03 3.552748084980166368e+03
1.199999999999999992e-10 2.364648009923343233e-09 7.426194951092253847e-09 7.291363015104159644e-09 1.801152546609654792e+03 -1.520126042385405071e+03 -9.075080382257683596e+02
1.199999999999999992e-10 2.256381839233319735e-09 1.990487345966768045e-09 4.696784966580784832e-09 -1.971245248403155074e+03 4.970952509387117288e+02 -1.719441249930607455e+03
1.199999999999999992e-10 9.486712850050788360e-09 3.655140204243307002e-09 1.924206043348386852e-10 1.240043199431636822e+03 -2.782561448445276255e+03 -1.136218618712303396e+03
1.199999999999999992e-10 3.436033203237591080e-09 7.653856494899343778e-09 6.752623557980066232e-09 -2.618592826160523146e+03 -3.591218227339294572e+03 1.386324913743171408e+02
1.199999999999999992e-10 2.921286412758239009e-09 1.656733936478762340e-09 4.122261969761973069e-09 2.787622025830378789e+03 -1.166432946754483737e+03 -1.444541831515349259e+03
1.199999999999999992e-10 5.096700560510112358e-10 9.758528670273919906e-09 1.435562563938807825e-09 -1.106331955899744116e+03 -3.523386573281431083e+03 -9.037913234234977153e+02
1.199999999999999992e-10 3.974576351495916345e-10 3.379032412259089652e-09 2.064484013117416994e-10 -1.181947819788792003e+03 -1.662125534129243761e+03 -1.036909700176868682e+03
1.199999999999999992e-10 6.430745392605475710e-09 9.780097250304746592e-11 2.203281860071534041e-09 2.326272447587136412e+03 -2.845686430589121755e+03 1.110377323504820424e+03
1.199999999999999992e-10 2.475731364228855364e-09 7.043394073569107480e-09 5.158816187168509852e-09 -2.084238970179974331e+03 -2.014828925038133320e+03 -2.395544032674868049e+02
1.199999999999999992e-10 7.023213106736370252e-10 3.141520851399731030e-09 2.423299344453329542e-09 -4.820243042329618675e+02 -1.038256560438093032e+02 -1.023417497187943127e+03
1.199999999999999992e-10 6.264020101507483392e-09 8.656006635623249755e-09 3.420758124779674969e-09 1.822202730610573326e+03 1.849765968672965982e+03 -3.438663882725040366e+03
1.199999999999999992e-10 6.418100832440441064e-09 1.429805044595351103e-09 5.872581604683482250e-09 -1.065527788213378471e+03 -1.983238936148916309e+03 2.177001709246215796e+03
1.199999999999999992e-10 5.555190782220107977e-09 5.251356054017003638e-09 8.687665603543038615e-10 4.046593223399754038e+02 1.381068870316574930e+02 -3.613974051921979935e+01
1.199999999999999992e-10 1.124766059886254869e-09 6.788437623158834352e-09 2.486649828546854758e-09 -2.434597754687429187e+03 3.440344480010972802e+03 -2.873535525042971130e+02
1.199999999999999992e-10 6.696829963702861347e-09 3.420408368311010262e-09 7.094588103745729637e-09 3.659634465319505807e+02 -8.941203711813642485e+02 -1.274457173696225709e+03
1.199999999999999992e-10 1.231666179719746752e-09 7.387096241978469262e-09 4.644375801474589182e-09 -1.431211822732766677e+03 -1.300398762216113710e+03 -3.278483555656923727e+02
1.199999999999999992e-10 7.157373927610409626e-09 4.659962801141335298e-09 9.796632222600391019e-09 2.128619899699938287e+03 -2.152020011001226976e+03 3.652403556176016082e+03
1.199999999999999992e-10 9.091842785122054021e-09 1.684813664312971893e-09 6.063509122154417642e-09 6.593428763757410138e+01 3.341537676596037727e+02 -1.329646296818231804e+03
1.199999999999999992e-10 2.060684747763349766e-09 9.873925411021315422e-09 9.228922872045996688e-09 2.564053203377886348e+03 -1.058523198263173072e+03 -8.897769894857112831e+02
1.199999999999999992e-10 7.953317892195346345e-09 2.371964982757651833e-09 7.627465750466705038e-09 8.186599321951820230e+02 4.975093227395656754e+02 -4.011817568950707482e+03
1.199999999999999992e-10 6.879468737545692874e-09 6.645385746004571057e-09 1.163840441038196331e-09 1.880733564571004990e+03 -7.336120473587007496e+01 -1.799804183139961879e+03
1.199999999999999992e-10 2.034142024232022558e-10 5.410308482581349818e-09 9.277872688431087902e-09 -1.039138625729021214e+03 -3.761842637810832002e+03 -6.107437960744367729e+02
1.199999999999999992e-10 3.113950575615673593e-09 7.846350783345231783e-09 3.342460022828035948e-09 1.013744735733401171e+03 2.698440608458001861e+03 2.035455608865803697e+03
1.199999999999999992e-10 1.143122749571661814e-09 3.381161334040169589e-09 8.545701905265578823e-09 5.906204575809982771e+02 1.605586669323682145e+03 1.940724176728827160e+03
1.199999999999999992e-10 4.361786149969367954e-09 6.150484200564637764e-09 6.079538371544576424e-10 2.466507262226651278e+02 9.940596803109172015e+02 2.179052598261722778e+03
ITEM: TIMESTEP
400
ITEM: NUMBER OF ATOMS
30
ITEM: BOX BOUNDS f f f
0 1e-08
0 1e-08
0 1e-08
ITEM: ATOMS radius x y z v_x v_y v_z
1.199999999999999992e-10 5.164583676444212990e-09 1.201322141222594621e-09 9.561328869704535881e-09 -2.341437949774569347e+02 -7.876836005619920797e+02 -8.382620693441832316e+01
1.199999999999999992e-10 4.435543292809632422e-09 8.729658027597234641e-09 8.953266656843709203e-09 -1.387139193296593248e+03 -1.169378523586684423e+03 -1.096676163232207273e+03
1.199999999999999992e-10 7.179103866870848355e-09 2.367757944380967960e-10 9.300115662425449053e-11 1.227858802372190894e+03 -1.454619284822317695e+03 2.289341482516159431e+03
1.199999999999999992e-10 5.542126479285415424e-09 5.237316275574198502e-09 5.429825749933717546e-09 -1.589800929752376533e+03 1.777668335119695030e+03 -6.358362157333306186e+02
1.199999999999999992e-10 9.106087102724984650e-09 6.071792295224581776e-09 3.309020086156958168e-09 1.679938639062445134e+02 1.015765950428412680e+03 4.787805122534365182e+03
1.199999999999999992e-10 2.530095527748508591e-09 7.307789792591691013e-09 7.250499008452876610e-09 9.119508190306077040e+02 -1.690506625899494566e+03 1.128816440328628232e+02
1.199999999999999992e-10 2.190641153429028995e-09 1.992642399493141561e-09 4.569472722949975106e-09 -5.105034834034764799e+02 -7.465578003625075780e+02 -6.299083039990017596e+02
1.199999999999999992e-10 9.567870618526322977e-09 3.569335601477263350e-09 1.558859734676724468e-10 5.929359523118756670e+01 -2.694136770508935115e+02 -1.090015735486628955e+03
1.199999999999999992e-10 3.207369412222279773e-09 7.407272200376514914e-09 6.846989575061221724e-09 -3.211354891456808673e+03 -6.841028676091443685e+02 3.705943203743173854e+03
1.199999999999999992e-10 3.173802594943391502e-09 1.385211608332429066e-09 4.018107867670598304e-09 9.308366723740130055e+02 -8.619212365178730124e+02 1.089206641364140751e+02
1.199999999999999992e-10 6.444239658634375065e-10 9.502094651978411759e-09 1.319598065506894663e-09 1.289001973345989654e+03 -1.012148735699442568e+03 -9.580002915362630347e+02
1.199999999999999992e-10 3.622360841364855982e-10 3.239429566083192470e-09 1.166049763989275669e-10 -1.365804684358914301e+03 -2.483670013068644039e+03 -1.519248366600772670e+03
1.199999999999999992e-10 6.611310747255846747e-09 6.848188823425876115e-11 2.134222748861278918e-09 2.186415348892438033e+03 7.842324603963784284e+02 -1.553804882287398073e+02
1.199999999999999992e-10 2.177923735322286579e-09 6.881873865277089053e-09 5.160170908331022595e-09 -4.228501544810425912e+03 -1.027419545404404062e+03 2.106929355994921480e+03
1.199999999999999992e-10 7.379699760894030485e-10 3.081103338670142587e-09 2.369108235976700536e-09 4.024445326088081174e+02 1.013234009752595739e+02 -5.021497943429669704e+02
1.199999999999999992e-10 6.277604762091328092e-09 8.816338816604514052e-09 3.266325745282042738e-09 -1.100906471544474016e+03 1.159869067528931510e+03 1.975814523555024209e+02
1.199999999999999992e-10 6.392122233631002621e-09 1.213959687504422436e-09 5.985006369694356304e-09 3.051115118010083620e+02 -8.738351188761299682e+02 -4.386623907536917955e+02
1.199999999999999992e-10 5.661856743204575121e-09 5.256504045589922384e-09 9.862852423423039784e-10 1.684217076217235899e+03 -2.871796437499424997e+02 9.861325630838175584e+02
1.199999999999999992e-10 9.586387660139415439e-10 6.961956248046821289e-09 2.527101749092952442e-09 3.394956469511690216e+02 2.724645850282419133e+02 6.095121317018342779e+02
1.199999999999999992e-10 6.632409492462357301e-09 3.292302626193322085e-09 7.145886872280968671e-09 -1.048820600180245719e+03 -1.907497570159465795e+03 7.584512073620883257e+02
1.199999999999999992e-10 1.129550743189570475e-09 7.203647864774274341e-09 4.609345898255132340e-09 -2.353653841470483712e+03 -2.713904873620323997e+03 2.063224629613236800e+02
1.199999999999999992e-10 7.274285133626927801e-09 4.728210182050422465e-09 9.883953531024844295e-09 -7.160019890661143336e+02 9.618281661250371144e+02 6.101675196245804500e+02
1.199999999999999992e-10 9.079694405715929970e-09 1.795172785937046136e-09 5.879609399671031037e-09 1.398299425710064270e+02 1.926452322377560904e+02 -2.093356278001799183e+03
1.199999999999999992e-10 2.295620569721869861e-09 9.876683159896629175e-09 9.099409585325940827e-09 5.917206786341882889e+02 2.070262597722363012e+02 -3.340668226261870473e+02
1.199999999999999992e-10 7.831161713058176930e-09 2.313374217479912813e-09 7.279983101574276986e-09 -1.599462676702992439e+03 -1.558133742738609442e+02 -3.927184862625032110e+03
1.199999999999999992e-10 7.018844953059641056e-09 6.627671516142774783e-09 1.011086702467657459e-09 1.883230237242399198e+03 1.471658027441891363e+02 -2.353908230603557058e+03
1.199999999999999992e-10 1.880575754607902115e-10 5.238763283300826952e-09 9.244618106735973353e-09 -1.003139776468845866e+03 -1.626580078206732651e+03 7.429508720366602574e+02
1.199999999999999992e-10 3.111843856687037121e-09 8.020694607425019428e-09 3.622575089439913486e-09 2.233405849764451887e+03 1.672030477561645512e+02 2.706716083361933215e+03
1.199999999999999992e-10 1.258626286791275871e-09 3.362968775265942332e-09 8.538633042740491772e-09 1.095178805432477702e+03 6.644977410567835250e+02 4.310029447561124698e+02
1.199999999999999992e-10 4.318772273174932135e-09 6.436454826098426708e-09 7.939861843875976908e-10 1.794441855229330031e+03 3.370038782959570653e+03 1.502266520650620578e+03
ITEM: TIMESTEP
500
ITEM: NUMBER OF ATOMS
30
ITEM: BOX BOUNDS f f f
0 1e-08
0 1e-08
0 1e-08
ITEM: ATOMS radius x y z v_x v_y v_z
1.199999999999999992e-10 5.032670198741657505e-09 1.186721635522532016e-09 9.666384562367453279e-09 -6.872319703966288671e+02 -1.464928226798839432e+03 1.134301001272884150e+03
1.199999999999999992e-10 4.237836593155449840e-09 8.669692642609294761e-09 8.933051083638183250e-09 -4.798523237639466061e+03 -1.431763568985014103e+02 2.095566479684042349e+02
1.199999999999999992e-10 7.533388846283680397e-09 9.477688374882855119e-11 3.041759064467032560e-10 4.718723894934613782e+03 -6.024889232501344623e+02 2.044202174910220947e+03
1.199999999999999992e-10 5.401087354316056788e-09 5.206877788664303481e-09 5.308591728958509113e-09 -2.001930763309484973e+03 -3.332636033903369821e+02 -2.087945715961968745e+03
1.199999999999999992e-10 9.030742848775600495e-09 6.182211895271745540e-09 3.470562328998294096e-09 -1.628105480889853197e+03 2.483813609250515128e+03 5.126181281407159531e+02
1.199999999999999992e-10 2.733534448848880510e-09 7.078618023672268717e-09 7.262371053408687165e-09 1.768430212373378708e+03 -2.572056491271213872e+03 -2.387981159714333899e+02
1.199999999999999992e-10 2.137098715987899899e-09 1.846218689595376969e-09 4.665444533515309657e-09 -2.086725321099608209e+03 -1.196863549391323886e+03 1.913012908377864960e+02
1.199999999999999992e-10 9.581401941560860015e-09 3.576034348639822920e-09 8.789725420061693427e-11 8.119728755103830053e+02 -5.051851924210135394e+02 -1.476897923311104250e+03
1.199999999999999992e-10 3.062351680530070070e-09 7.323742348623343683e-09 7.106410069651166118e-09 5.212354172031102735e+02 -9.951079050692408146e+02 4.080871746692430406e+03
1.199999999999999992e-10 3.263141969705265881e-09 1.236285536833413507e-09 3.955308537048340580e-09 1.712486632246414956e+03 -6.315649983963241993e+02 -6.689606420070477952e+02
1.199999999999999992e-10 6.488896916856995668e-10 9.536759262069296185e-09 1.175642517555182854e-09 4.757148105150654374e+02 2.732324677520596197e+02 -5.574953010062990870e+02
1.199999999999999992e-10 3.161126665162374575e-10 3.174436517041737284e-09 2.448563869344816199e-12 3.300866568290163627e+02 1.387957296892659770e+03 -2.501435447318552633e+03
1.199999999999999992e-10 6.518418025681250760e-09 2.404321969863020106e-11 2.136802563532575032e-09 -1.121881338097222027e+02 -1.519274045213604950e+03 -7.014516448903436867e+02
1.199999999999999992e-10 2.000378035245494082e-09 6.795891727438415869e-09 5.208184514835639266e-09 -1.419577018181476888e+03 -1.678987198364265623e+03 -1.097644118694152837e+02
1.199999999999999992e-10 7.275279968477487432e-10 3.083780866338773935e-09 2.426433602497083915e-09 -8.686655540682320407e+02 6.547067806503785050e+02 1.617963782837364533e+03
1.199999999999999992e-10 6.314433088434356783e-09 9.037293186884304559e-09 3.293264421683866449e-09 1.562437477053869088e+03 2.390897656453840227e+03 -9.964283435851741615e+02
1.199999999999999992e-10 6.348917407497260288e-09 1.325541969994566501e-09 6.086860463386784509e-09 5.760836911024139226e+02 1.871664559341500080e+03 4.896703570169199793e+02
1.199999999999999992e-10 5.754463467832593182e-09 5.255329706022643098e-09 1.230896741391441158e-09 2.128640317496581247e+02 -1.449442857058918435e+03 2.251935475612425307e+03
1.199999999999999992e-10 6.853388625466595858e-10 7.038484291898041768e-09 2.569618183201288463e-09 -3.467637690818856754e+03 7.618117279043443659e+02 -1.972635110210502489e+02
1.199999999999999992e-10 6.676564797544902537e-09 3.345685409980237702e-09 7.192163661317483521e-09 8.562576860374548460e+02 8.420289025073032008e+02 9.217290868311811209e+02
1.199999999999999992e-10 9.115808532825576227e-10 7.028840938764693795e-09 4.685656277238581294e-09 -2.564465128903700133e+03 -1.463363867516026403e+03 9.663713411843752965e+02
1.199999999999999992e-10 7.134244337068684353e-09 4.902936747042599173e-09 9.988454100505962227e-09 -3.031294914534037162e+02 -1.000295581184283947e+03 5.811944055196133831e+02
1.199999999999999992e-10 8.989465612083493909e-09 1.887055817249736843e-09 5.819498983564750173e-09 -1.480958213025571467e+03 1.037673233860531127e+03 3.674098639469204386e+02
1.199999999999999992e-10 2.528061845842079690e-09 9.918089067025285446e-09 9.122803051129340707e-09 4.273498783159911000e+03 1.599748288118091978e+03 7.116697918142421031e+02
1.199999999999999992e-10 7.684972691069903915e-09 2.243291317932790555e-09 7.225136005814993368e-09 -9.154265071912112717e+02 -5.584566602810451741e+01 1.487715587061074530e+03
1.199999999999999992e-10 7.170271160535338152e-09 6.603411877032306486e-09 9.209046785525251839e-10 1.247338558424719622e+03 1.259089193396449900e+03 -2.339072933384918542e+03
1.199999999999999992e-10 1.040119362960993081e-10 5.178194902984348736e-09 9.339728504707303614e-09 4.067124990049524058e+02 6.833753133552310146e+02 -4.921746457220055504e+02
1.199999999999999992e-10 3.201321925336382982e-09 8.057805678539870399e-09 3.772775402223027688e-09 1.503072625851704288e+03 -1.298054064896031377e+03 -4.108387861576932778e+02
1.199999999999999992e-10 1.262095009853026049e-09 3.370573692233222602e-09 8.670452242275071382e-09 -7.612263850236176950e+02 -5.235647144350872395e+01 -6.686724428598994336e+02
1.199999999999999992e-10 4.346452264349120194e-09 6.688094205316006389e-09 7.653426458365399145e-10 -7.015382220004798910e+02 6.403526900670693749e+02 -2.713959455649393476e+03
ITEM: TIMESTEP
600
ITEM: NUMBER OF ATOMS
30
ITEM: BOX BOUNDS f f f
0 1e-08
0 1e-08
0 1e-08
ITEM: ATOMS radius x y z v_x v_y v_z
1.199999999999999992e-10 4.858566258527942342e-09 1.116720231281495127e-09 9.725865289182124287e-09 -1.322903814984662404e+03 -1.561631976623852722e+02 1.276229198130381064e+03
1.199999999999999992e-10 3.902706045826896186e-09 8.690233780817657252e-09 9.023443889387552347e-09 -1.591848844491246609e+03 1.781026110163033138e+02 1.680941754111285718e+03
1.199999999999999992e-10 7.875634490434989438e-09 3.182732432926018110e-11 6.027966444887374193e-10 2.416090771536286866e+03 1.415240907716775610e+03 2.810448972562538984e+03
1.199999999999999992e-10 5.293546640960018074e-09 5.130791318434960124e-09 5.164276461339196546e-09 1.233176169406198710e+02 -1.053942788821026625e+03 3.030473491555835608e+02
1.199999999999999992e-10 8.799638162886682180e-09 6.382466973544635323e-09 3.399362410093796820e-09 -1.945287694137522067e+03 9.996481730905314862e+02 -7.829512803225042035e+02
1.199999999999999992e-10 2.864709924395476662e-09 6.960762027177376861e-09 7.250339409669281678e-09 -2.461913327822280166e+02 4.066739185133287720e+02 -1.110104331342120361e+02
1.199999999999999992e-10 1.965256036262076312e-09 1.817187900083393620e-09 4.647571590503713040e-09 -2.933064612269471581e+03 2.807406014300660217e+02 -1.869447192486981351e+02
1.199999999999999992e-10 9.557377930746146708e-09 3.465823232504286871e-09 1.084569527383434223e-10 -1.307532300518219017e+03 8.688574871202906706e+02 -5.696861676722796801e+02
1.199999999999999992e-10 3.095935350069260379e-09 7.057912541358859041e-09 7.563752057413078805e-09 -1.781439789742501489e+03 -3.809306895359662576e+03 4.407400292863537288e+03
1.199999999999999992e-10 3.474031624670448295e-09 1.098929316238990203e-09 3.921253169720967305e-09 3.551165971287361572e+03 -1.970609861476997821e+03 9.855502323045961930e+02
1.199999999999999992e-10 6.658587026977256080e-10 9.681977805343311947e-09 1.006737392615254483e-09 -1.090373801622167775e+03 2.152701034100471134e+03 -2.121182093567517768e+03
1.199999999999999992e-10 2.834019379404714230e-10 3.354374645862500584e-09 1.906254644988916628e-10 -3.156609006902374404e+03 1.089619599486956304e+03 1.292401703961587828e+03
1.199999999999999992e-10 6.393675738452044225e-09 1.048078088266200159e-10 2.056036188920390387e-09 -4.638604245537746465e+03 1.729802150140222352e+02 -2.518202768172755270e+02
1.199999999999999992e-10 1.869668305156742469e-09 6.711317060217471238e-09 5.184315036889498120e-09 -1.816410163546364856e+03 9.604660628061649277e+02 1.623438680580965183e+02
1.199999999999999992e-10 7.614554432772598385e-10 3.104089566227037452e-09 2.642985809668580511e-09 1.793997810443360549e+03 -9.269058169653621917e+02 2.312039974034150873e+03