ITEM: TIMESTEP
100
ITEM: NUMBER OF ATOMS
30
ITEM: BOX BOUNDS f f f
0 1e-08
0 1e-08
0 1e-08
ITEM: ATOMS radius x y z v_x v_y v_z
1.199999999999999992e-10 2.179638957483569806e-09 8.321651344135536493e-09 2.497575926437299433e-09 -8.816401570501453762e+02 -1.741158481328762662e+02 -1.631243735055979414e+03
1.199999999999999992e-10 6.910983713146139518e-09 1.580863362502752542e-09 6.134425032874028150e-09 -7.612914324725959432e+02 -9.958431455506777183e+02 2.383053293059919270e+03
1.199999999999999992e-10 5.287319155297380071e-09 6.099469141606126385e-09 6.636631209215550584e-09 5.612281877968241588e+02 1.456063333629639089e+02 3.658825742927372744e+02
1.199999999999999992e-10 3.839618011360700991e-09 1.806878738324184027e-09 9.480301783015123064e-09 1.899169395301137683e+03 3.328751961568846127e+02 -3.039178267894959390e+03
1.199999999999999992e-10 1.565649457964249927e-09 5.086696197714414199e-09 5.305024503310648681e-09 -1.150073096001696058e+03 -9.779726993880160535e+02 -1.103613278594373242e+03
1.199999999999999992e-10 7.389415539930722478e-10 7.686685076258366433e-09 2.667894199638943595e-09 -6.084046617469746252e+02 1.435913575943985052e+03 6.397892601613308443e+02
1.199999999999999992e-10 6.373917709421818725e-09 2.645666127422635443e-09 1.295414425487049674e-09 -4.960617852268668457e+02 2.948451946019846446e+02 -1.843851775603100577e+03
1.199999999999999992e-10 2.787016408452188314e-10 1.972060122976296376e-09 7.075692858237415755e-09 9.689662157832560752e+01 6.658635609532101398e+02 3.782949370151981384e+03
1.199999999999999992e-10 1.940532180316749698e-09 7.910465196869604871e-09 8.533793327927457929e-09 -1.238745131965394421e+03 9.847389089204174297e+02 -1.227451886268726469e+02
1.199999999999999992e-10 7.356188843927877904e-10 2.886843969159876528e-09 8.713052545431313768e-09 -1.957899867812237972e+03 1.285797156968652644e+03 2.504120901300615856e+02
1.199999999999999992e-10 4.701759801180642378e-09 2.066132192720252735e-10 5.139745643069328290e-09 -6.980687270147793697e+02 -2.641463173176546661e+03 -7.635694213521715312e+01
1.199999999999999992e-10 4.188381610522099241e-10 9.803868393094404133e-09 8.098442405875809182e-09 1.893833375968478947e+02 -8.165066728406159200e+02 1.776342578018617644e+02
1.199999999999999992e-10 1.926312441798827752e-09 6.544187454699435504e-09 5.221337291655158016e-09 5.419634977941140050e+02 -3.371033458218067835e+02 -7.919293506122589861e+02
1.199999999999999992e-10 2.811249384857293494e-10 8.347942283680222338e-09 5.504894698100923854e-09 -3.539009057607588602e+03 -8.433659812339677728e+02 -1.263331979122488292e+03
1.199999999999999992e-10 3.713471548608233957e-09 1.231782024685233876e-09 1.817593057736810332e-10 -2.310363060036500428e+03 -2.702901733248742858e+03 -1.773090961320812994e+03
1.199999999999999992e-10 8.703135677006953643e-09 3.009659027787538100e-09 5.515831784161260322e-09 2.052244332779230717e+03 2.622885477381450983e+02 -8.792166521365920744e+02
1.199999999999999992e-10 6.278358938257165659e-09 5.568664812356513284e-09 6.959328595736944558e-09 1.770900749750698651e+03 -8.540592809893581716e+02 -1.874984646599727512e+03
1.199999999999999992e-10 9.701315749661217474e-09 9.116736418036549370e-09 3.322142625406586440e-09 -2.901379376580230655e+03 1.637737387691375716e+03 1.591867461941696774e+03
1.199999999999999992e-10 1.742326487772471471e-09 4.069469478767061830e-09 6.127098287444421465e-09 5.445462860812815507e+02 -4.038731283892085457e+02 4.609210208881163453e+02
1.199999999999999992e-10 3.240871266012427243e-09 8.601252026155333163e-09 4.700751690236369969e-09 -2.310794071820193494e+03 -2.186686506361007787e+01 -2.514990856896087337e+02
1.199999999999999992e-10 2.560254806643732394e-10 9.607698945800344368e-09 1.000143134403211923e-08 -2.312935299682108507e+03 -2.506065517965466825e+03 -1.582493769941739174e+03
1.199999999999999992e-10 3.356456446461878356e-09 2.884779320795095838e-09 1.887154101038321469e-09 3.498846115826034975e+02 1.478303863541742430e+03 -1.709503606507092854e+02
1.199999999999999992e-10 3.144475258641345360e-09 4.038641706044301120e-09 4.698105711983889860e-09 1.445525349701648111e+03 -1.965664930884177238e+03 1.809298577242509964e+03
1.199999999999999992e-10 9.599890204776127299e-09 1.086565622700834275e-09 7.771476498817135291e-09 1.282368883049014585e+03 6.870007186678312792e+02 9.786508123908305379e+02
1.199999999999999992e-10 5.568962793744486976e-09 6.311864620220360152e-09 6.146103552184214246e-09 1.159268545241353422e+03 -7.636682407472834484e+02 -1.753506758316779496e+03
1.199999999999999992e-10 2.526697618501440846e-09 6.538206041975730040e-09 9.533812030872795000e-09 1.873565584668630208e+02 -1.413789294920838984e+03 -2.149800131639831307e+03
1.199999999999999992e-10 3.141681359710834730e-09 3.983276325615720975e-09 8.799583218241847665e-09 4.278648371311951450e+02 -4.792071797265637088e+02 8.122632140144596633e+02
1.199999999999999992e-10 9.949357997727240454e-09 4.700233251361863350e-09 4.814314243911601006e-09 -1.183802271788775215e+03 -1.975916557492741276e+03 3.096920905486735478e+02
1.199999999999999992e-10 2.313324922206850900e-09 3.977023701868380068e-09 9.700918743409761124e-09 8.762181092329710737e+02 -8.889556014311220906e+02 9.841464178591716063e+02
1.199999999999999992e-10 4.615401656977596976e-09 6.676908732517647633e-09 3.240272554478350879e-09 5.204509730473804439e+02 7.310322610772818734e+02 2.851362600764665785e+03
ITEM: TIMESTEP
200
ITEM: NUMBER OF ATOMS
30
ITEM: BOX BOUNDS f f f
0 1e-08
0 1e-08
0 1e-08
ITEM: ATOMS radius x y z v_x v_y v_z
1.199999999999999992e-10 2.191775952339789556e-09 8.444970249838544399e-09 2.405357716546309010e-09 9.584145259308960476e+02 1.079199261400123760e+03 -6.547470666648047199e+02
1.199999999999999992e-10 6.812764161934630983e-09 1.370225352229600096e-09 6.269652481119972399e-09 -6.029379547234567553e+02 -4.760718176275474434e+03 7.782562252761927084e+02
1.199999999999999992e-10 5.323558667553369980e-09 6.089658586891704203e-09 6.693555128629985638e-09 -8.432703665292062851e+02 -1.637274751504511187e+03 -6.192678377666080678e+02
1.199999999999999992e-10 3.907859911388392051e-09 1.881601529352200315e-09 9.289978040621238865e-09 1.066042517448411900e+03 1.866152803234576368e+03 -1.268020602466598802e+03
1.199999999999999992e-10 1.587782706750263537e-09 4.962836331598030831e-09 5.247212820004388470e-09 -3.384078427517461591e+02 -1.396575177431571547e+03 -1.127732970916259546e+03
1.199999999999999992e-10 7.664109893716043392e-10 7.871296194797909032e-09 2.722032170250439174e-09 -1.694446834534579693e+01 4.940316703045031090e+02 1.660940333505305944e+01
1.199999999999999992e-10 6.400582764042393322e-09 2.749203183104908124e-09 1.089693333624933471e-09 1.879310177670214443e+01 3.266096906575734465e+03 -2.005785135712776537e+03
1.199999999999999992e-10 3.355586353741654788e-10 1.920629831276089134e-09 7.417441250128909858e-09 2.343310623837999628e+03 -1.051906796534180728e+02 2.878200091389793670e+03
1.199999999999999992e-10 1.845574230193886474e-09 7.978925486104537911e-09 8.548277497565692454e-09 1.088285197528534582e+03 8.596363733226635304e+02 8.420784255949756698e+02
1.199999999999999992e-10 6.609057238897843701e-10 2.971919321704546356e-09 8.827451826216958784e-09 -1.309248562785278693e+02 -7.831602336534957942e+01 1.931638573928679534e+03
1.199999999999999992e-10 4.376683427882533855e-09 1.559306867253399127e-10 5.267736261359898716e-09 -1.739100209759096742e+03 1.544539353999386094e+03 7.826153367887231980e+02
1.199999999999999992e-10 3.931353182103401365e-10 9.756577209245574895e-09 8.238908798874783801e-09 -1.057420399026902487e+03 -3.773184678586914060e+02 1.012824627806375702e+03
1.199999999999999992e-10 1.920337342970737433e-09 6.571929444517402957e-09 5.061285492641356413e-09 -5.527488702950572588e+02 -7.832770493382390669e+02 -1.334284515431198543e+03
1.199999999999999992e-10 1.361714669451206831e-11 8.168738005937875747e-09 5.241852116846662996e-09 -2.691424708732843101e+03 -1.172130548386552618e+03 -3.697073991564965127e+03
1.199999999999999992e-10 3.445142103782839013e-09 1.032548100154899424e-09 2.408198500857795464e-11 -2.603881233072812847e+03 -2.862429596326775027e+03 -8.135042407444825585e+02
1.199999999999999992e-10 8.914028713339204387e-09 2.993471111271693190e-09 5.445678786215859570e-09 1.530630828933863086e+03 1.433164055223587866e+03 -5.772739906253580955e+01
1.199999999999999992e-10 6.400441291650796525e-09 5.587389100330259924e-09 6.824616573980490483e-09 -1.262668548574444685e+03 -3.807910051065502444e+02 -2.068407419451247733e+03
1.199999999999999992e-10 9.382530660197304400e-09 9.348864045450636047e-09 3.332387155853653443e-09 -4.803224047306692228e+03 1.842592521494445009e+03 -1.320572473296197131e+02
1.199999999999999992e-10 1.667699834115879923e-09 4.246895872581962694e-09 6.130927979075610921e-09 -2.250289345090913230e+03 1.546069718070210456e+03 -1.459481999697851961e+03
1.199999999999999992e-10 3.145189561808244196e-09 8.553301675351613324e-09 4.689333992561626743e-09 -6.720321374431273398e+01 -1.856978148710050618e+03 -5.313896875499881389e+01
1.199999999999999992e-10 5.395173017112989300e-11 9.387447639563484916e-09 9.936200461582350662e-09 -2.566616348348118663e+03 -4.295225429008244191e+02 5.026028511267981571e+02
1.199999999999999992e-10 3.426618574544811879e-09 3.040736366957198898e-09 1.973830313138894342e-09 1.705646753598692612e+03 -2.143098871163896604e+02 1.316057018577948156e+03
1.199999999999999992e-10 3.173880351039559144e-09 4.040768033034252765e-09 4.871469078459221807e-09 4.159832618404515188e+02 -1.155292427483507254e+03 8.055819405103113695e+02
1.199999999999999992e-10 9.685456322316259484e-09 1.310547126572905133e-09 7.832086155170613781e-09 -2.107242198437690149e+03 1.565642962698734209e+03 -4.018374391479529208e+02
1.199999999999999992e-10 5.549279447447313517e-09 6.216097083066450233e-09 6.148837774962386599e-09 -9.020247700844230394e+02 4.925604556322576855e+02 -3.636766774852880530e+02
1.199999999999999992e-10 2.525086109086859455e-09 6.353637723838430892e-09 9.317570806558877162e-09 -1.420950917683654097e+03 -3.072547565068628955e+03 7.322038516504215977e+02
1.199999999999999992e-10 3.091457492251441056e-09 3.930431194500610892e-09 8.857973310411641704e-09 -2.415950925836572878e+03 -1.478584821859943986e+03 1.241776909376712410e+03
1.199999999999999992e-10 9.859998344816628782e-09 4.560991334290856650e-09 4.889924256126716812e-09 -1.505302768809819099e+03 -2.059658291570043275e+03 1.806891004979532909e+02
1.199999999999999992e-10 2.386919230734427968e-09 3.841264433790177668e-09 9.629755759102753653e-09 1.222937654889401074e+03 -1.623699689348830816e+03 -4.930108181068977729e+02
1.199999999999999992e-10 4.561580724384321718e-09 6.644363420103355733e-09 3.501298315400531954e-09 -3.657615687810465488e+02 3.651037413964240841e+02 1.546524950082587566e+03
ITEM: TIMESTEP
300
ITEM: NUMBER OF ATOMS
30
ITEM: BOX BOUNDS f f f
0 1e-08
0 1e-08
0 1e-08
ITEM: ATOMS radius x y z v_x v_y v_z
1.199999999999999992e-10 2.122919715932607695e-09 8.531804161207084162e-09 2.126402218263086959e-09 -1.963346946922426469e+03 8.627937998810623412e+02 -4.762247630239643513e+03
1.199999999999999992e-10 6.872245511593282807e-09 1.135684817640244705e-09 6.254274492601369804e-09 6.751235507292748252e+02 7.518544199680858355e+02 -2.053474279963420940e+03
1.199999999999999992e-10 5.149683583762120171e-09 5.898851636140319448e-09 6.605228296814003261e-09 -1.436159971246872601e+03 1.107898129806930456e+03 3.930668346714145969e+02
1.199999999999999992e-10 4.013936727431850293e-09 1.891789800543859338e-09 9.300268053628471576e-09 -5.208987868955858858e+00 -1.881460352563897459e+03 -3.153779396551261698e+02
1.199999999999999992e-10 1.582014695401991504e-09 4.761436100286232252e-09 5.139031369528847320e-09 6.399614439976794529e+02 -1.895249495958809348e+03 4.922179119221673318e+02
1.199999999999999992e-10 6.908606635257273635e-10 7.966633948016845483e-09 2.770111011521036888e-09 -4.136044722987492150e+02 -4.214739937028438135e+02 4.470374831314484254e+02
1.199999999999999992e-10 6.377135605731957161e-09 3.011820322471429788e-09 9.481216648212864942e-10 -1.452618675754899016e+02 2.203893981973885730e+03 -1.735568507152017446e+03
1.199999999999999992e-10 5.011622377973155377e-10 2.023908530771056160e-09 7.637028067515581567e-09 1.398954221103017062e+03 2.865675826007664909e+03 1.670961114403000693e+03
1.199999999999999992e-10 1.977051663685118853e-09 8.001005310267584507e-09 8.625764205860796216e-09 1.208861993958699713e+03 9.415910532867607117e+02 1.996082121177555109e+03
1.199999999999999992e-10 6.772020205672175995e-10 2.984278862912204579e-09 8.914655603581796431e-09 -2.772465513053732593e+02 1.142159809294042134e+03 2.421811940561794074e+02
1.199999999999999992e-10 4.178626543812632573e-09 8.068308843544273637e-11 5.275462960267570027e-09 6.301101196502916224e+01 -2.013133829360516529e+03 7.964456939242346607e+02
1.199999999999999992e-10 2.270678075130501976e-10 9.729913635432032420e-09 8.345548952579698469e-09 -1.121420132717504202e+03 7.248352806706748197e-02 4.038755224725952075e+02
1.199999999999999992e-10 1.980145716659997707e-09 6.464490611898306616e-09 5.119502714333898490e-09 6.536908701714527297e+02 -1.933020524627177338e+03 -1.545949294699229540e+03
1.199999999999999992e-10 1.061499484438304128e-10 8.250021788499507526e-09 4.956854002382078263e-09 1.319732574749971036e+03 -8.953786989289390021e+02 -3.326260443261773617e+03
1.199999999999999992e-10 3.289392539493658029e-09 9.714966372156826883e-10 1.358365562968010167e-11 -1.868862156420155145e+02 8.258580933136644830e+01 3.287877739884801827e+02
1.199999999999999992e-10 8.847908672762216186e-09 3.039960878222922505e-09 5.407281094920643996e-09 -1.659789927136503366e+03 3.787297457481839729e+02 -2.025918805079751337e+03
1.199999999999999992e-10 6.474288771696365131e-09 5.656507280593025864e-09 6.638007294247609294e-09 8.749192028742851335e+01 2.561318135704659653e+03 -1.025017390602378100e+03
1.199999999999999992e-10 9.080230664089176278e-09 9.446550621823376234e-09 3.386219360389823711e-09 -1.199025428800730197e+03 6.264878612730428813e+02 1.481365464874444569e+03
1.199999999999999992e-10 1.615565035417569608e-09 4.334558255887691515e-09 6.144425539922779829e-09 -1.007367967561603791e+03 -1.436501446066713697e+03 2.735660133667298396e+03
1.199999999999999992e-10 3.106440397880412133e-09 8.259791538180933783e-09 4.658456973008129157e-09 -1.327647484417265332e+03 -2.508700799953735896e+03 -4.778765154976599092e+02
1.199999999999999992e-10 7.726595471238692895e-11 9.393841527114562300e-09 9.862914818190085164e-09 1.095960014195789881e+03 1.304146629560467090e+03 -2.136300397261326452e+03
1.199999999999999992e-10 3.495742755621650773e-09 3.099969507853984215e-09 2.139829619289202878e-09 -3.092579294730251149e+01 -4.750500646601869903e+01 1.285486540631446815e+03
1.199999999999999992e-10 3.144901923497524811e-09 3.848448672898257596e-09 5.091215139971147097e-09 2.251209333525011687e+02 -3.460253209645620245e+03 1.830006993634827722e+03
1.199999999999999992e-10 9.544863361380014095e-09 1.434478015686012461e-09 7.716869105702943970e-09 -8.551984201930498557e+02 2.156144545241835658e+03 -6.893464313146939730e+02
1.199999999999999992e-10 5.490885676662461511e-09 6.321138574517891751e-09 6.149500168354121972e-09 -5.492390601263883809e+02 1.978004664018522817e+03 7.374999596175298393e+02
1.199999999999999992e-10 2.459251615299591190e-09 6.115290647105329096e-09 9.394454244393816144e-09 4.510062298139033032e+02 -1.738957898245708293e+03 3.552023717537998664e+02
1.199999999999999992e-10 2.923654057881209765e-09 3.716185887582042563e-09 8.896589237198689277e-09 -2.169627758316209110e+03 -3.056322882334821770e+03 4.866216577372233019e+02
1.199999999999999992e-10 9.772120765469638364e-09 4.523463920054315677e-09 4.830304212939373171e-09 5.430303945628227211e+02 1.243258725999394755e+03 -8.333351365082409075e+02
1.199999999999999992e-10 2.400479008152501099e-09 3.872330531850309238e-09 9.619791242575810723e-09 -1.701365915185292351e+03 5.990629823114909414e+02 -4.132889711536547566e+02
1.199999999999999992e-10 4.668864337912530566e-09 6.754376884254439031e-09 3.530446063636530166e-09 2.773768766233849874e+02 3.090452041508824550e+02 -1.974937839621370586e+03
ITEM: TIMESTEP
400
ITEM: NUMBER OF ATOMS
30
ITEM: BOX BOUNDS f f f
0 1e-08
0 1e-08
0 1e-08
ITEM: ATOMS radius x y z v_x v_y v_z
1.199999999999999992e-10 1.864084147310919082e-09 8.356466577326450370e-09 1.738684281428484335e-09 -1.808852493731508275e+03 -1.366798184141582396e+03 -4.795912846323158192e+03
1.199999999999999992e-10 6.855611058599298914e-09 1.085405039210146232e-09 6.081755169776173702e-09 -7.243709786490421720e+02 5.088145426960037412e+02 4.491879682001575702e+01
1.199999999999999992e-10 4.960531818088504587e-09 6.022132877278553218e-09 6.645971381592486358e-09 -1.595371716141375373e+03 -3.495305013969128822e+02 7.429560544330869334e+02
1.199999999999999992e-10 4.005451006548126303e-09 1.782594932897980523e-09 9.157371719673549447e-09 -1.247287147665332668e+03 -1.321935585980811538e+03 -1.920362787956822785e+03
1.199999999999999992e-10 1.740411292185498599e-09 4.758396454827035764e-09 5.298361278113745522e-09 3.917294951798762668e+02 1.709889513846025693e+03 1.676877735157399229e+03
1.199999999999999992e-10 7.432921092365562542e-10 7.902350689396146247e-09 2.839889255250286958e-09 2.180490694130057818e+03 -1.695588348029136796e+03 1.076376459681466031e+03
1.199999999999999992e-10 6.435940139020414473e-09 3.252923520586983428e-09 9.961642952113793935e-10 -2.511873923077037034e+02 1.744959616590535063e+02 4.455647832523191028e+02
1.199999999999999992e-10 6.361434397714914157e-10 2.197783584180460860e-09 7.723185328419724135e-09 1.068360409031912013e+03 9.101101646989641267e+02 4.637974830140037739e+02
1.199999999999999992e-10 2.128078445170739547e-09 8.130521854479630452e-09 8.728271783076140520e-09 1.215409981811345915e+03 -6.970046248681002226e+02 -1.169099758503991325e+03
1.199999999999999992e-10 6.499118089700366605e-10 3.126142599025953597e-09 8.912616047198772048e-09 -4.032212090535350058e+02 6.328927429014056543e+02 -1.007341488007980104e+02
1.199999999999999992e-10 4.208512738012884055e-09 6.674301013787859997e-11 5.262900718767251074e-09 1.911627883597756181e+02 -5.148750528518348801e+00 -1.681795202113979713e+03
1.199999999999999992e-10 2.691932678813660305e-11 9.662488797613932410e-09 8.258355813300527732e-09 -4.185519016144694433e+03 7.850353897840597028e+02 -6.577312737392272766e+02
1.199999999999999992e-10 2.066492387235639799e-09 6.456158106426572126e-09 5.002624956814292136e-09 3.135919207222589193e+02 -1.806395300902496274e+03 -3.609591133604522497e+02
1.199999999999999992e-10 3.554914284260997090e-10 8.220857744547734727e-09 4.765750958730770082e-09 3.054075805526759723e+03 -2.837053515514265314e+02 -2.126255211019297349e+03
1.199999999999999992e-10 3.150600715056540109e-09 9.420097893328306860e-10 7.109094890633706812e-11 -3.161750009381547670e+02 -3.176757987670451939e+02 1.860971447419483411e+02
1.199999999999999992e-10 8.657855663980518658e-09 3.141192700330933889e-09 5.164682272990559396e-09 -1.613843893091490372e+03 5.866652477714062570e+02 -8.231265991984762422e+02
1.199999999999999992e-10 6.418045994200284085e-09 5.807171269885235295e-09 6.454392945350874991e-09 9.093630547276234211e+02 1.317636177132845205e+03 -1.285808069434382787e+03
1.199999999999999992e-10 9.036660537731839766e-09 9.512634050956191535e-09 3.621071934538558768e-09 2.485921392234234190e+03 -3.562964300453353985e+02 2.528379215708456741e+03
1.199999999999999992e-10 1.624406641788311650e-09 4.425992458304605792e-09 6.375050827169741150e-09 -3.191145980612574817e+01 1.235208036878285895e+02 1.804578219065961548e+03
1.199999999999999992e-10 3.010629610282261833e-09 8.079342494934250710e-09 4.682037256680751977e-09 -4.483040467777378524e+01 5.672461434808553804e+02 -5.012314263108009982e+02
1.199999999999999992e-10 1.180341317337602997e-10 9.519078940613106690e-09 9.674442966346416582e-09 4.495676830747850659e+02 3.635911432579973734e+02 -2.032575656286697040e+03
1.199999999999999992e-10 3.443003377195886637e-09 2.971242984608378090e-09 2.287113807180599332e-09 -1.252679150947345988e+03 -3.138333329945925925e+03 2.919153917701367391e+03
1.199999999999999992e-10 3.068736644961364605e-09 3.766831221168068738e-09 5.076834596742422904e-09 -1.557898864633311405e+03 7.886790421081575460e+02 1.489681838636452085e+02
1.199999999999999992e-10 9.529627185136156901e-09 1.554623571021146127e-09 7.698039129401302466e-09 3.851972692802647771e+02 4.114239541563316607e+02 5.159209807871845896e+02
1.199999999999999992e-10 5.636785613692001155e-09 6.368758644431753286e-09 6.288389883423929186e-09 1.038990718136191617e+03 3.915597280394814561e+02 2.779718954579636375e+03
1.199999999999999992e-10 2.372544314340388032e-09 5.911965098626414373e-09 9.399739336034759606e-09 -2.598215948870071770e+03 -2.380603826099252274e+03 -8.991296271219459868e+02
1.199999999999999992e-10 2.811673753886109848e-09 3.506959501408964760e-09 9.031305699868693127e-09 -7.199233396972960008e+02 -1.114198614556333268e+03 1.220769930516014256e+03
1.199999999999999992e-10 9.931687013398789366e-09 4.554433556595488066e-09 4.980638813660833954e-09 1.687970510879116318e+03 -1.492925579269612513e+02 2.060507392644573429e+03
1.199999999999999992e-10 2.147462981916181658e-09 3.818081194488524615e-09 9.597150783053926268e-09 -2.748981126552704609e+03 -3.694744741718818091e+02 -1.893543266891931808e+03
1.199999999999999992e-10 4.636992238321910873e-09 6.812714260074295805e-09 3.313682591159372454e-09 -1.126908322782625874e+03 1.558876176545428791e+02 -1.660886031005394443e+03
ITEM: TIMESTEP
500
ITEM: NUMBER OF ATOMS
30
ITEM: BOX BOUNDS f f f
0 1e-08
0 1e-08
0 1e-08
ITEM: ATOMS radius x y z v_x v_y v_z
1.199999999999999992e-10 1.802209160085940866e-09 8.194805922508963471e-09 1.458759405097897004e-09 2.062679284485694552e+03 -2.353171415189897857e+02 -1.651784865008832867e+03
1.199999999999999992e-10 6.918237947041645671e-09 1.184466772214105691e-09 5.927595379963089318e-09 1.509235855782892713e+03 1.489104948873307649e+03 -1.791711863891244320e+03
1.199999999999999992e-10 4.878912368997180891e-09 6.085535006234559245e-09 6.785979912424730642e-09 -1.380768895490307841e+03 1.189857370932370031e+03 1.586592113637219427e+03
1.199999999999999992e-10 4.086509339274622720e-09 1.555392080617403994e-09 9.022740166550758941e-09 4.822666699529073639e+02 -3.684250878747478964e+03 -2.455332921309045105e+03
1.199999999999999992e-10 1.798547515493773009e-09 4.919190668534617424e-09 5.281278411373838157e-09 9.471941802132241719e+02 2.839213904408277358e+03 -2.076591234587826420e+03
1.199999999999999992e-10 7.656854081816594154e-10 7.869179520723928459e-09 2.743508417994024318e-09 8.144822200999039978e+02 -1.792903250101650769e+01 -2.018876457289619111e+03
1.199999999999999992e-10 6.301984686315589686e-09 3.260336120488684261e-09 1.030358980597875551e-09 -2.996450258640935772e+03 5.512481122220990528e+02 -7.375368158986092340e+02
1.199999999999999992e-10 7.860046641705926929e-10 2.364195314379591876e-09 7.705378904722943404e-09 6.547217958071456678e+02 8.125474837081358146e+02 -1.031522032567190308e+03
1.199999999999999992e-10 2.126524620226268761e-09 8.178800952704437459e-09 8.555432300544964791e-09 -9.979684215091319857e+02 6.276491929828018783e+02 -1.723136904863813925e+03
1.199999999999999992e-10 7.795943016044727413e-10 3.109887665729110225e-09 8.768597773595188628e-09 2.184495024172892045e+03 -2.758899734654855251e+02 -2.075438658176734862e+03
1.199999999999999992e-10 4.421751454146806135e-09 2.946689450950198852e-11 5.261857260515006847e-09 4.048812876997334570e+03 2.549427067532356432e+03 -2.188878098542485588e+02
1.199999999999999992e-10 1.529117237344541162e-10 9.749392739679688143e-09 8.374340747380662781e-09 7.620360902982214384e+02 1.211399294507472405e+03 1.503210684977947949e+03
1.199999999999999992e-10 2.067134535797182198e-09 6.339419858136462387e-09 5.086930554124086477e-09 -3.891102154258005612e+02 4.388023821618747320e+02 2.566610311302377795e+03
1.199999999999999992e-10 6.293413975239906066e-10 8.199142737617559036e-09 4.749156824712213926e-09 1.648969735870432942e+03 -2.424730981938706407e+02 -1.261227116952230972e+03
1.199999999999999992e-10 3.149468064258884889e-09 1.014778959427625348e-09 8.114204319840043352e-11 -7.978655034348372510e+02 1.587406392228905816e+03 -7.029950286422031240e+02
1.199999999999999992e-10 8.551699062321396465e-09 3.409769030300834343e-09 5.047116507677612886e-09 -1.407698005823791391e+03 1.780973523652676477e+03 -2.742830981298966435e+03
1.199999999999999992e-10 6.419845727624587625e-09 5.828784506742688725e-09 6.376307584922266708e-09 1.423324848669531661e+02 6.347725911213865402e+02 -5.032920601700349721e+02
1.199999999999999992e-10 9.182884832832477601e-09 9.555318928067380628e-09 3.978966364110917535e-09 1.861326879993853026e+03 -1.824343026902817826e+02 3.164000899097971342e+03
1.199999999999999992e-10 1.592203113996810307e-09 4.370094003616571555e-09 6.589026589734466598e-09 9.008242484673698982e+02 -1.385094694054925867e+03 2.857585752825655618e+03
1.199999999999999992e-10 2.966595250431956826e-09 8.242764175628645960e-09 4.894072061769468692e-09 -1.597286069381233119e+03 4.651352186024423645e+02 2.764347451554565851e+03
1.199999999999999992e-10 6.441815767411670611e-11 9.440968099827246363e-09 9.504694848441107907e-09 2.180129039659300645e+02 -1.302875730117082867e+03 -1.555721103273726840e+03
1.199999999999999992e-10 3.508113878272777101e-09 2.699192201600397555e-09 2.306782069156629900e-09 1.896973865319620927e+03 -1.180086623111879589e+03 -1.856443982281695753e+03
1.199999999999999992e-10 3.021955775715280522e-09 3.696257236006325600e-09 5.025783239996899260e-09 -3.021118614939460656e+01 -8.487958024214640318e+01 7.462815885116349079e+01
1.199999999999999992e-10 9.630025859031836224e-09 1.561652547774808533e-09 7.586239776863448482e-09 1.552363661421606594e+03 -1.438548077702553655e+03 -1.326497772311621020e+03
1.199999999999999992e-10 5.658258177034918175e-09 6.317541192035245854e-09 6.438162060759306826e-09 -6.636295429753521375e+02 -9.844614282769415468e+02 -8.832621455739766816e+02
1.199999999999999992e-10 2.215531634355099848e-09 5.615576409938901227e-09 9.377083267832425250e-09 -2.180710348636102935e+03 -3.018209385028113957e+03 -6.876077335585388255e+02
1.199999999999999992e-10 2.844824060588395487e-09 3.314794860267262081e-09 9.163056058042456629e-09 9.886619339777876121e+02 -3.379276225307572986e+03 3.071119300495382049e+03
1.199999999999999992e-10 9.954573451169637676e-09 4.561976792431439475e-09 5.128903822388886440e-09 1.149461827901325250e+03 3.087066500093246759e+02 1.496666184843995552e+03
1.199999999999999992e-10 1.918965641180346676e-09 3.819704259293923082e-09 9.600835896909577176e-09 -3.414182140840850479e+03 -2.722126821775335657e+02 1.520387719681680210e+03
1.199999999999999992e-10 4.512033047951800632e-09 6.818588394428797159e-09 3.315337117697557904e-09 -2.328555813362670960e+03 -4.587870147628876794e+02 8.858840753247011435e+02
ITEM: TIMESTEP
600
ITEM: NUMBER OF ATOMS
30
ITEM: BOX BOUNDS f f f
0 1e-08
0 1e-08
0 1e-08
ITEM: ATOMS radius x y z v_x v_y v_z
1.199999999999999992e-10 1.903833346337689957e-09 8.125778183309645785e-09 1.266562422709442343e-09 3.141203945455321787e+02 -1.483515776205293150e+03 -1.232712226346058742e+03
1.199999999999999992e-10 7.001131901638801113e-09 1.182059369901986786e-09 5.771367539632636576e-09 -7.535490708969690559e+02 -1.079553650750497809e+03 -1.579688246625572901e+03
1.199999999999999992e-10 4.771171018225906626e-09 6.131314483735848013e-09 7.012364967809552512e-09 -1.136361453960114886e+03 3.589205769159049737e+02 1.567630302852687009e+03
1.199999999999999992e-10 4.011191419535841453e-09 1.379561113100915162e-09 8.884716025754118104e-09 -1.464061380799029848e+03 -1.071560637505642035e+03 -2.523484247885602656e+02
1.199999999999999992e-10 1.793088967177805769e-09 5.046968609032854851e-09 5.183146776274121228e-09 -1.036583008340151991e+03 5.127573125243144432e+02 -2.186267580947968781e+03
1.199999999999999992e-10 8.550860714907356558e-10 7.956533222348514133e-09 2.542620899063566542e-09 4.560450012885749516e+02 5.191710312830699650e+02 8.692020239550035967e+02
1.199999999999999992e-10 6.156953119420335571e-09 3.260596245150071876e-09 9.420870446564925397e-10 -2.738941553617140698e+02 -6.053891144254514529e+02 -8.877104978390534598e+02
1.199999999999999992e-10 6.564733567352484905e-10 2.388802483664559158e-09 7.582877236871041152e-09 -2.217375740968434002e+03 6.460720630306759631e+02 -3.549447275961030300e+03
1.199999999999999992e-10 2.045118930898224732e-09 8.312633605426164587e-09 8.430121151782605442e-09 2.565147557551725299e+02 2.269217953137831500e+03 -9.326279328340581287e+02
1.199999999999999992e-10 1.121266921721589840e-09 3.184600606539119715e-09 8.675538513227677970e-09 3.230472463534989856e+03 2.084183391697119134e+02 -6.267683157648569647e+01
1.199999999999999992e-10 4.659613911089539190e-09 1.493429507378044533e-10 5.204776327751857388e-09 8.997153088124248370e+02 2.144829670244221234e+02 -6.671271006111883253e+02
1.199999999999999992e-10 2.921716029416228258e-10 9.930055721893581336e-09 8.496005072372890908e-09 1.476287938598958135e+03 7.903956508991227565e+02 -6.778772419241765874e+02
1.199999999999999992e-10 2.137985540734613686e-09 6.358652258964932248e-09 5.102626033469612888e-09 8.290509473391854272e+02 5.585053230123794492e+02 -1.317836794403821841e+03
1.199999999999999992e-10 7.307678065487416281e-10 8.256132542902361546e-09 4.541768221276021690e-09 7.545261005665247467e+02 9.683585986053972192e+02 -1.410904553041587178e+03
1.199999999999999992e-10 3.043706951901082202e-09 1.143304721929054575e-09 2.026749122144463556e-11 -6.417940638356242289e+02 2.015360503864666271e+03 1.316708059577440963e+03