ITEM: TIMESTEP
100
ITEM: NUMBER OF ATOMS
200
ITEM: BOX BOUNDS f f f
0 1e-08
0 1e-08
0 1e-08
ITEM: ATOMS radius x y z v_x v_y v_z
1.199999999999999992e-10 3.175827536083340315e-09 9.956772440796504464e-09 9.361679159236382282e-09 -1.217501969440647599e+03 -4.227265806038087703e+02 1.725740186200139874e+02
1.199999999999999992e-10 3.878520872806854923e-09 3.844787736133003614e-09 6.204654858168442430e-09 5.238386839679684499e+02 2.055708663145451737e+03 2.305563517775755372e+03
1.199999999999999992e-10 4.302261418589084344e-09 4.352128092684324663e-09 5.441688226925697875e-10 7.477101207447228148e+01 -1.129698218149937361e+02 -7.012829223134029917e+02
1.199999999999999992e-10 5.200293264837271246e-09 1.811848620819775649e-09 1.958495621051100616e-09 -1.231618050286525659e+03 -2.246066170169713132e+03 1.843564566166131158e+02
1.199999999999999992e-10 3.813335117444566699e-09 5.644758316229480623e-09 7.038395308051996283e-09 -2.039616187544054640e+02 -7.005389560200869710e+02 -2.546669427623760384e+03
1.199999999999999992e-10 1.538088199244117864e-09 2.992753347322915832e-09 2.596115791869047669e-09 2.854398633606914473e+02 -2.408484350355906372e+03 -1.951265164472061997e+03
1.199999999999999992e-10 3.201677956089696865e-09 1.286570352134095108e-09 6.607858568246783669e-09 4.232952428289159457e+02 1.367406059219416193e+03 5.992826741161486552e+02
1.199999999999999992e-10 5.827577741435827257e-09 5.832488599423375658e-10 4.442136739038658221e-09 2.672519898605751678e+03 6.930333321163402616e+02 -1.043058416656243025e+03
1.199999999999999992e-10 2.669694004457005006e-10 2.688688008783420572e-09 3.011178127881299781e-09 -1.240937862335775179e+02 -9.950952786996894019e+02 2.863083972577627719e+03
1.199999999999999992e-10 9.562845374140424608e-09 9.082535430252617298e-09 6.342326344339470339e-09 1.825831637572984391e+03 -9.707238396249412062e+02 -7.083541381013790215e+02
1.199999999999999992e-10 7.993507647087491182e-10 4.481324486793140638e-09 6.870719641490399220e-09 -1.396817009175653993e+03 -1.994948389279124740e+03 -1.699128433614757796e+02
1.199999999999999992e-10 8.408581223309469795e-09 2.414623812600874528e-09 2.564411365707785796e-09 2.230122424727280304e+03 -9.633411218937151261e+02 -2.757413592735468910e+01
1.199999999999999992e-10 9.764213955089410854e-09 5.238313242076226064e-09 1.032746485131613051e-09 -7.352295572538669148e+02 6.174256594833165082e+02 4.745397706668937872e+02
1.199999999999999992e-10 2.492876828824218926e-09 2.202034684076900950e-09 7.147479631258757567e-09 5.317373704641748873e+02 -9.064717786675814182e+01 2.427239539194270321e+02
1.199999999999999992e-10 6.219368698427275090e-09 2.060397521214241742e-09 1.282037806314575585e-09 -1.114377599987661824e+02 3.507651883577432272e+02 4.914820148468211300e+02
1.199999999999999992e-10 3.994969976976586435e-09 3.445611759355105632e-09 1.480330556247047448e-09 -9.863434730129398531e+02 -5.133221047279403138e+01 -4.635428606208173505e+02
1.199999999999999992e-10 1.182782333033915641e-09 9.170384361472738327e-09 2.763277267302486716e-09 8.032149499185098875e+02 -1.906676781722069109e+03 3.394930499571579503e+02
1.199999999999999992e-10 5.818282171545526426e-09 9.405244953271319831e-10 6.590924875863626735e-09 -2.480648066592216765e+03 -1.199925002110271862e+03 2.937678979242846253e+03
1.199999999999999992e-10 6.402607621890248968e-09 8.892491966649233257e-09 9.948408744012998654e-09 -1.596330692080406379e+02 6.332667654819342715e+02 -1.302248928340026623e+03
1.199999999999999992e-10 1.234720865440279784e-09 3.240586170520055868e-09 7.656567769195476229e-09 -1.726543392974301014e+03 -4.519034986768790532e+02 3.231702038316403559e+03
1.199999999999999992e-10 1.955655624077062579e-09 2.687975499521506900e-09 9.611245692504535708e-09 1.276606992631831645e+03 -5.541206256768364256e+02 9.086422712109970234e+02
1.199999999999999992e-10 2.060843092501126995e-09 3.225946187777480875e-09 4.953753786792384156e-09 -7.679637689165006122e+02 -2.890930085610764309e+02 1.188129065143315984e+03
1.199999999999999992e-10 8.885283340283688352e-09 5.315885744181778892e-09 3.081973933953738236e-09 -2.820070975444833152e+02 -9.539170320396424358e+02 -4.623658415254201373e+02
1.199999999999999992e-10 1.911980594439965754e-09 8.223109000561576476e-09 4.837420832674012090e-09 -1.108267267291788585e+02 -2.671778336452912299e+02 -2.297518732088006800e+03
1.199999999999999992e-10 1.951946021139141564e-09 6.132598904722663382e-09 6.166086802168820383e-09 2.640287086422849370e+03 1.910921246430365727e+03 -1.864668456871054616e+02
1.199999999999999992e-10 1.789170183487089382e-09 9.920325221631256017e-09 1.921426262158238646e-09 -7.808885345947813903e+02 -3.034390942579784110e+02 1.764394283902462803e+03
1.199999999999999992e-10 9.174467563623099833e-09 1.776538323920299585e-09 3.553545968146503764e-09 -1.229756897637213797e+03 1.823136020996937077e+03 -1.501984367420774788e+03
1.199999999999999992e-10 2.348635115503601332e-09 2.365686958234085331e-10 4.517969948783645743e-10 2.689448713176530418e+03 3.336201662125802159e+00 3.603798620637867884e+02
1.199999999999999992e-10 5.607252502568578215e-09 6.845288751867656012e-09 7.083262629151766951e-09 -8.925196650121399955e+01 1.147870210888892188e+03 -3.086527153816054579e+03
1.199999999999999992e-10 3.369094646647387169e-09 4.196392534501688660e-09 7.527279546569778724e-09 -1.176350882968924452e+03 2.061281783985626589e+03 -9.533248256935851259e+02
1.199999999999999992e-10 7.792577428674678315e-10 9.590875205363938288e-09 1.364155445531396488e-10 2.226361959357974456e+02 -6.295031642595974972e+02 4.874838379647411557e+02
1.199999999999999992e-10 7.740853808967401508e-09 3.067272052759395248e-09 3.848242000664861468e-09 1.389702516622726762e+03 -1.840288213062201521e+03 -2.947821459726721400e+02
1.199999999999999992e-10 9.613460733298641348e-09 2.200523028034157113e-09 3.018517448589258818e-09 6.407739633178409804e+02 -6.883922073659792886e+02 9.933306757293848932e+02
1.199999999999999992e-10 5.538745324817736010e-09 9.359465083027065121e-09 9.699857825085640255e-09 -1.210759249889722923e+03 -1.534431691002843536e+03 1.567517621126275117e+03
1.199999999999999992e-10 5.678725849189045584e-09 7.011528526849187930e-09 8.011434798083405349e-09 -8.056289186545863004e+02 -5.926486494212186926e+02 -2.130974618836913578e+03
1.199999999999999992e-10 7.739322807623438151e-09 7.483082263737079904e-09 4.310866868392734240e-09 -6.190785842448390213e+02 -7.492038252485709791e+02 -2.140902248480305445e+02
1.199999999999999992e-10 7.340747348510549526e-09 6.442229124044228085e-09 7.085335561709071292e-09 -7.411307838996319788e+02 -5.885746043353723280e+02 -5.429382615748043008e+02
1.199999999999999992e-10 4.807418089282638265e-09 3.457724698219420295e-09 4.353852861221032462e-09 2.620501108891433887e+03 -1.430121462721268244e+03 3.178791190777307747e+03
1.199999999999999992e-10 6.315999605271480578e-09 4.698813384437821497e-09 8.831822164042048995e-09 -2.600954741772920897e+03 -1.744483832744247138e+03 1.284365809023059683e+03
1.199999999999999992e-10 9.963707485645304670e-09 1.800625567076998828e-09 5.741314684793500546e-09 -6.621799897557542636e+02 1.689404323012472105e+03 7.133170256500253572e+02
1.199999999999999992e-10 6.510294337317543190e-09 9.538023104104615646e-09 6.561685352204081554e-09 3.693255513901152653e+02 2.774830992551861527e+03 -4.695821964186340551e+02
1.199999999999999992e-10 2.259674003256434655e-09 7.611471129812797704e-09 3.255527535535909749e-09 -1.670957643402920894e+03 -1.491371173493427477e+03 9.254612980931516404e+02
1.199999999999999992e-10 5.242268052150249521e-09 4.864228158889301926e-09 1.145726987510112287e-09 2.515082250187098907e+03 2.923504160139715395e+02 6.445724353390017995e+02
1.199999999999999992e-10 1.172136920298565442e-09 7.608904466703255452e-09 1.128509093432191506e-09 3.047052164778372116e+02 1.608340712436767944e+03 -2.003104723233674576e+03
1.199999999999999992e-10 7.192916578168129619e-10 4.080602166590979110e-09 7.944845410153228122e-09 7.096457254427588168e+02 -2.118172386124486820e+03 1.475748977890237256e+03
1.199999999999999992e-10 5.019378456815538954e-09 7.473610515522907313e-09 3.387241703671632335e-09 8.464296097781987100e+02 1.623844255323559310e+03 3.882919189141256311e+02
1.199999999999999992e-10 3.259206598642538102e-10 5.997075205530786679e-09 1.113193541824114828e-09 6.028871489672009147e+02 1.963890236659763104e+03 1.231078621814803995e+02
1.199999999999999992e-10 4.390013595730797744e-09 6.380472389427532378e-09 5.729869391049975669e-09 -1.404413601877691235e+03 1.258622880703537703e+03 -7.629131295997808593e+02
1.199999999999999992e-10 3.853089200585027761e-09 9.011041072224540903e-09 4.208644800109099266e-09 2.797951119912178910e+03 -1.113261199522115930e+03 -1.003018603869500112e+02
1.199999999999999992e-10 8.071161516314903568e-09 3.263228523773818951e-09 6.094871420601186787e-09 8.446338579973378273e+02 -6.465592963099687722e+02 2.724419356711360365e+02
1.199999999999999992e-10 2.399729979781338794e-09 8.010296024344627191e-09 4.503812785883193437e-09 7.655300242700443505e+02 -1.297694140886793093e+03 6.930370321010211683e+02
1.199999999999999992e-10 3.687301433283982136e-09 9.777117282036181307e-09 4.780323075697213621e-09 2.166313795954851230e+03 -1.193365237928738907e+03 -1.289377663698119250e+03
1.199999999999999992e-10 6.658391763666084929e-09 3.415916610163201414e-09 3.191562558996543392e-09 2.073865889742109175e+03 8.484870265001922007e+02 1.405795079799195264e+02
1.199999999999999992e-10 6.921715141481399642e-09 2.125045146208675899e-09 5.678905197834046909e-09 -6.423162628569569961e+02 8.264734233594485886e+02 -4.458938765486246893e+02
1.199999999999999992e-10 3.656805513686102063e-09 8.614946803101787634e-09 1.366126565818822798e-09 5.235148025721097156e+02 1.080130508477538569e+03 -2.761687224656454305e+02
1.199999999999999992e-10 2.573956770486196452e-09 2.803534514195430460e-09 4.541673738059661143e-10 1.899511625895343059e+01 -1.205124708547438104e+03 3.141064956853534113e+03
1.199999999999999992e-10 8.779436721616251670e-09 1.454684686030561857e-09 9.138395371449828879e-09 8.109652087340070921e+02 1.301880208213539731e+02 4.879021565869883261e+02
1.199999999999999992e-10 6.644620539241248815e-09 8.981421339034029196e-09 7.916805280450059198e-09 -7.813272637061240857e+02 2.613753436462963009e+01 -1.103516383290038334e+02
1.199999999999999992e-10 8.162453989438413707e-09 7.363501925821095304e-09 3.453038468784990699e-09 -1.186603044639199425e+03 2.248423914855210569e+03 1.474015631233499789e+03
1.199999999999999992e-10 2.954575528266178242e-09 3.648068866888392962e-09 5.869269598895658684e-09 2.418854257212609355e+03 -2.358443269930388851e+03 1.758585698283035526e+03
1.199999999999999992e-10 9.905625163957011808e-09 3.328342593832531952e-09 4.583870350860298360e-09 -1.751846414530695483e+03 1.182820046593440111e+03 -3.333475738753847963e+02
1.199999999999999992e-10 8.410135206477185462e-09 2.056653460470381253e-09 4.184420496682312220e-09 2.150475692887214905e+02 -2.592956253730848402e+03 1.071372911764213541e+03
1.199999999999999992e-10 5.418794728494900040e-09 7.677202866313852081e-09 8.566181373568888111e-09 8.039239748969707762e+02 1.075294051143606794e+03 1.817168412146893615e+03
1.199999999999999992e-10 1.852032686450771740e-09 7.982283024014968095e-09 3.559847714174644687e-09 3.081051236551695638e+03 -1.923760519573294459e+03 -1.966432413758044504e+03
1.199999999999999992e-10 7.105175874069967742e-09 2.966955052118981475e-09 8.400668802865824033e-09 -5.277287463567332679e+02 1.074424848837614036e+03 -7.612398519224665279e+02
1.199999999999999992e-10 3.035734667629355103e-09 6.081684372608176014e-09 5.005388926738959766e-09 -7.950935526012549417e+02 6.619582044925546143e+02 -2.100184012019222450e+02
1.199999999999999992e-10 7.882074690407142085e-10 6.517949534501966871e-09 5.866758866949989294e-09 -6.293028423883622509e+02 1.350942933794479131e+03 2.812194994886484892e+03
1.199999999999999992e-10 5.158538432804451321e-09 8.625959872399664088e-09 2.122450631601564728e-09 2.470403979092377995e+03 -6.739961973999421616e+02 -1.061789889434362522e+02
1.199999999999999992e-10 3.200183698055342579e-09 3.514925911558775707e-09 7.006392362973437202e-09 8.024820700572798842e+02 6.441315504895209187e+02 9.876509822876496401e+02
1.199999999999999992e-10 2.233244088583333109e-09 6.415181122580290860e-09 9.165655687866020015e-09 -7.253289888393555884e+02 2.335570947610374901e+02 -2.183662052212221624e+03
1.199999999999999992e-10 4.653346173852379011e-09 5.798545768033627876e-09 4.448527989972430982e-09 2.528672130576065626e+02 2.691694961532901289e+03 -1.172487551644578616e+03
1.199999999999999992e-10 6.579995086627714376e-10 6.274532482500411614e-09 4.734103860682837853e-09 1.942785424642407406e+03 -5.080031254468301540e+02 -1.581359417438544824e+03
1.199999999999999992e-10 7.569774519063282356e-09 4.276268784696400339e-09 4.795121220366159292e-09 -1.782435685325526038e+03 2.126955755472416968e+03 9.077868001449955955e+02
1.199999999999999992e-10 8.865479484129134694e-09 6.258249893479021671e-09 7.968777077951484401e-09 -3.271031010495742066e+02 5.464505664931991760e+02 3.657688643379245150e+03
1.199999999999999992e-10 3.492558850470359845e-10 7.627099460943906065e-09 2.875717640259063770e-09 8.256482982659427989e+02 -4.248777328405748449e+03 -1.393340169821881773e+03
1.199999999999999992e-10 1.136031281495327863e-09 9.098518035778236091e-09 3.840233192743133598e-09 1.971093314608402125e+03 -1.027462568428333725e+03 6.071499217532531247e+02
1.199999999999999992e-10 5.169810230493454954e-09 5.848860833199091013e-09 6.003390543805243831e-10 1.400411718241962262e+02 -1.861537093953803605e+03 2.497964676044477415e+02
1.199999999999999992e-10 8.627003376847101678e-09 6.369424774452325356e-09 9.420541645305618428e-09 -8.163035668175218689e+02 5.925140672025289632e+02 9.910314250690539666e+02
1.199999999999999992e-10 7.817058603960443434e-09 3.843450750791238612e-09 9.850955425509943052e-09 -3.596173548315127846e+02 4.551449063566960263e+02 3.680855383324157515e+02
1.199999999999999992e-10 3.242066386301644049e-09 3.830571235451162254e-09 7.430470983653051380e-09 1.861246692998857725e+03 -2.167784722475706076e+03 4.504283086006881263e+02
1.199999999999999992e-10 7.093086997042819211e-09 7.712858568448643666e-09 4.006560169046274815e-09 1.284183121122002376e+03 5.116563855793259563e+02 -2.230956970132600929e+02
1.199999999999999992e-10 8.848291752640827454e-09 9.817087244735490068e-09 3.448774700815872352e-09 -2.994426261744167277e+03 -1.074941355156031932e+03 -2.416552747319791251e+03
1.199999999999999992e-10 5.074761112393639568e-09 4.930707385140143482e-09 8.897989172422376942e-09 1.227317301045271506e+03 5.927824893343780559e+02 2.942788409872224292e+03
1.199999999999999992e-10 1.800999439023263553e-09 4.743547350315719750e-09 2.863328268276158315e-09 7.665295941050919737e+02 3.332693833767309570e+02 -1.728653120994880510e+03
1.199999999999999992e-10 5.115307649657221591e-09 1.091375996029388899e-09 1.571901166637490917e-09 1.112783441330862161e+03 -1.921160871715438134e+03 8.130872531538827843e+02
1.199999999999999992e-10 3.021709584457320315e-09 6.218810943938068347e-09 4.515060489885292207e-09 8.800121496905457263e+01 -1.860326607194743076e+01 -7.724098276041308964e+02
1.199999999999999992e-10 7.962448719096483053e-09 4.835387134756135931e-10 9.030668056484752722e-09 1.858725588478533382e+03 -2.393071383934652658e+03 -1.074833406504175855e+03
1.199999999999999992e-10 6.253272402447587517e-09 4.875635053048218876e-09 3.899604061755601978e-10 2.099173025377850081e+03 -1.524638399949041627e+02 6.107012738310921804e+02
1.199999999999999992e-10 6.717490329649272271e-09 2.570371427757367825e-09 7.358225004737660614e-09 -2.117372576421763370e+03 6.458557984850607454e+02 -7.229375218766399485e+02
1.199999999999999992e-10 6.041722201191455627e-09 4.099669651807551519e-10 1.981730481981440856e-09 1.324773036031701622e+03 -2.079703635628653501e+03 -4.450187950441967928e+02
1.199999999999999992e-10 4.787710517460653585e-09 2.392320177618571668e-09 9.385255363108275415e-09 4.751584010871357577e+02 -1.438831265554417087e+03 -2.181068936918212557e+02
1.199999999999999992e-10 6.382311800419373759e-09 2.723037734836551261e-09 4.008059458392544037e-09 -3.444066891165714139e+01 -7.246067343361683015e+02 3.406607055037248756e+03
1.199999999999999992e-10 7.471074302247472942e-09 1.026943055157342816e-09 8.391347929343647137e-09 -3.878785854770096648e+03 -2.479755580188990280e+03 -7.156318663618482105e+02
1.199999999999999992e-10 5.946825481614407941e-09 7.745210600937190837e-09 1.561326139515505007e-09 -1.987899965927578705e+03 3.401667742554144525e+02 3.170431359766636206e+02
1.199999999999999992e-10 5.851151895791403674e-09 7.572112654341461003e-09 2.991125472237252317e-09 -1.576731134747211172e+03 -1.462200848337602110e+01 -1.781656970965369737e+03
1.199999999999999992e-10 8.463045307684309989e-09 6.298031903114083337e-09 1.525721005327581318e-09 -5.389321011120130152e+02 -2.713253023498153880e+02 -1.931640167892562886e+03
1.199999999999999992e-10 6.750381218013199504e-09 1.944808970888396724e-09 8.606196253783727568e-09 1.388629680155695951e+03 -1.465843709223078349e+03 2.871264229323127893e+03
1.199999999999999992e-10 2.188470656273276753e-09 8.296436119176429232e-09 1.169434388923638132e-09 2.966250048351911346e+02 1.199245834321845905e+03 1.183621289082248950e+03
1.199999999999999992e-10 3.913861180707712003e-09 1.308836139085008759e-09 1.631471095323971666e-09 -1.249829721434288331e+03 -1.514681770368073558e+03 2.087815126638823585e+03
1.199999999999999992e-10 5.239114526862516584e-09 4.720534822777967800e-09 7.822256387448112738e-09 7.117362427332570007e+01 7.412335149883815575e+02 1.256869558596852130e+03
1.199999999999999992e-10 3.781713478060615865e-09 4.996278647064428672e-09 5.758649748036703862e-09 -2.417425850562534833e+03 -2.269363611868681346e+03 8.151041933449530461e+02
1.199999999999999992e-10 1.733152786493662630e-09 1.432300564699375259e-10 7.477605166337563106e-09 9.561464275974781231e+02 1.500507588992875299e+03 -1.937908447099736804e+03
1.199999999999999992e-10 7.726259340966324087e-09 9.382458039745138042e-09 8.309062047491946279e-10 -1.641310916194194306e+03 2.783857641210115617e+02 -7.334754946017983457e+02
1.199999999999999992e-10 7.917004351976378915e-10 3.564860634401632504e-09 2.670747961088643012e-09 -2.191426453807224334e+03 -1.468868094377153511e+03 -6.436731487998958983e+02
1.199999999999999992e-10 9.366870077042727445e-09 9.094254537971393792e-09 5.238784954017021393e-09 -1.256513676218374258e+03 -3.119660775027756472e+02 -2.217229696316241643e+03
1.199999999999999992e-10 4.867909728740648777e-09 5.446914956731830835e-09 8.217613475224687059e-09 -7.219620093257889266e+02 -9.670989221182014717e+02 1.280486738962521031e+03
1.199999999999999992e-10 7.545101964056221556e-09 2.124360126296369793e-09 4.073187981544621004e-09 2.423167428369702634e+02 2.665946329413472426e+02 -1.831469775423807732e+03
1.199999999999999992e-10 2.855392727153510173e-09 6.988003947316505200e-09 4.471753210134322572e-09 -1.303080490142061535e+03 1.694544678891231342e+03 -1.390487311221615414e+02
1.199999999999999992e-10 7.086800905880822625e-09 8.651043341832831159e-09 6.078718385940367889e-10 -7.499102037979831721e+02 -1.956419821928665215e+02 1.957270572828683726e+02
1.199999999999999992e-10 1.324524654288915063e-10 7.212407291384108746e-10 8.804653142199474611e-09 -1.724657930750094465e+03 -2.135907028287022513e+03 -8.216703247785395092e+01
1.199999999999999992e-10 4.202877745207291102e-09 4.500962945102269818e-11 7.489610071076696182e-09 2.043304056324700696e+03 -9.390983744760536638e+02 -3.125842324949226168e+03
1.199999999999999992e-10 7.519462909468410251e-09 8.258764950369536375e-09 8.842531013215387752e-09 -1.222470576230880397e+03 -2.246428459912578546e+03 -1.889603754046775975e+03
1.199999999999999992e-10 3.020000125225017893e-09 2.284482757314594377e-09 9.742314882967894529e-09 3.954269127430575281e+01 2.690111749626694291e+02 -1.377546499984088996e+03
1.199999999999999992e-10 3.671246473344174073e-09 3.714131870630701778e-09 7.014344445838167066e-09 2.099660243506423740e+03 1.539776262929820632e+03 -1.333020177401095907e+03
1.199999999999999992e-10 8.395421557100784343e-09 6.277231712330561329e-09 7.995794688543249079e-09 2.231319874760654329e+02 2.659179546822510929e+03 7.274817450227241125e+02
1.199999999999999992e-10 4.108044811844996924e-09 4.513516116623062473e-09 8.186853625192537279e-10 2.762919759907981074e+02 -8.135187059174913884e+02 1.020918180557588698e+03
1.199999999999999992e-10 4.943140668676719304e-09 9.293109541073986900e-09 9.020780812332157606e-09 6.037469268461910588e+02 -1.282249629410959415e+03 -1.575526982849041815e+03
1.199999999999999992e-10 2.231440873734420042e-09 2.915203510525421967e-09 3.426936594841088665e-09 2.593388155088468466e+03 -8.683011584331412678e+02 1.704745327963218188e+03
1.199999999999999992e-10 2.103782652124271328e-09 3.732598098468846012e-09 8.854963906128279027e-09 -3.513828096166224668e+01 -1.806602061084902289e+03 -3.371949805707173482e+02
1.199999999999999992e-10 7.440661984674474113e-09 1.847648241234281213e-09 9.656788936952064373e-09 1.579380992400482683e+03 -1.911440812762429289e+02 -3.835861560848270813e+01
1.199999999999999992e-10 9.760217127910953982e-09 4.054663737661453133e-09 2.850191280780227331e-09 -3.040781407934623985e+03 -1.142836317621186026e+03 1.814747572356706939e+02
1.199999999999999992e-10 1.288842744883649389e-09 8.645298456237877193e-09 3.571382460070843806e-09 2.307469590779510327e+02 8.990850754109736727e+02 2.262769541828535694e+03
1.199999999999999992e-10 7.514226754986918690e-09 8.243665106735250328e-09 6.482309200756364726e-09 1.927067074154399279e+03 -1.056076347749918227e+02 1.478446213172083390e+03
1.199999999999999992e-10 6.175399966075321298e-09 6.874670147448001448e-10 3.291557570249925163e-11 -2.062394224763282637e+03 -1.681461047619691271e+03 2.372308203183154092e+03
1.199999999999999992e-10 2.805827413646797122e-10 8.079389758921786532e-09 3.035216122749429938e-09 2.582890913622471089e+03 1.279985898294501794e+03 -1.604729851292862350e+03
1.199999999999999992e-10 7.758556329431919368e-09 1.277240342787574977e-09 7.798409519061332905e-09 3.739337309600539925e+02 4.762643706617066073e+02 3.562956531649046497e+02
1.199999999999999992e-10 9.273806152009523901e-09 1.045055186919357492e-09 1.219270006250629868e-09 1.694721803706871015e+03 -1.814845365384783690e+03 -1.217579749613638342e+03
1.199999999999999992e-10 7.911619097955683651e-09 3.003903430520009227e-11 6.343051227854136564e-09 -1.080521848569900612e+03 1.093457028010952627e+03 1.026590328225443955e+03
1.199999999999999992e-10 8.256220006903373375e-09 2.714532686032711421e-09 3.943074603948349713e-09 8.387896302034264409e+02 1.176543324605488351e+03 -5.698258496747289428e+02
1.199999999999999992e-10 5.501408664145152758e-09 9.308990660365825765e-09 5.171584011094646898e-10 -9.540000344935667727e+02 -1.794577242017562867e+03 2.455195163248277822e+03
1.199999999999999992e-10 5.031776528025942794e-09 5.068523793484626871e-09 7.778469102739838130e-09 -7.994738472192335621e+02 -2.381520319423193087e+03 1.439549971251713941e+03
1.199999999999999992e-10 4.912306055294767746e-09 5.283731450110378939e-09 7.255787586664306542e-09 1.204431268252578548e+03 1.016697490052697503e+03 3.599022797563085874e+01
1.199999999999999992e-10 2.736556788631146836e-11 7.466016783779371219e-09 5.924695023700132082e-09 -4.588759951034411415e+02 -2.037514470277399141e+03 -4.707261125383521971e+02
1.199999999999999992e-10 4.332039710110890607e-09 2.928189419918617731e-09 7.296833929963232288e-10 1.092856744350152439e+03 -1.644970776347274466e+02 1.519248878446956724e+03
1.199999999999999992e-10 2.633920333376436242e-09 5.930915449723166457e-09 9.138271897361136999e-10 6.497860196352805815e+02 -2.074665497286758182e+03 2.402012226955245637e+02
1.199999999999999992e-10 1.701347894428128222e-09 3.900477250087826842e-09 7.971487055019480472e-09 2.479423339425596282e+02 2.300480875984143040e+03 -9.495761799500558027e+02
1.199999999999999992e-10 6.138385335114408941e-09 4.084209184852670335e-09 1.333645551297917797e-09 7.023091811984004380e+02 1.088201067000025432e+03 -2.845563345724475539e+02
1.199999999999999992e-10 5.979060663472212085e-10 1.665155602329085741e-09 3.361467962211421858e-09 -1.442367447792411213e+03 -2.086903542872637729e+01 -1.272631048651509218e+03
1.199999999999999992e-10 4.012673458562465216e-09 5.076665629517277432e-09 3.299622039236816506e-09 -8.433982989795930507e+02 1.242283431853004174e+02 8.511373873338941394e+02
1.199999999999999992e-10 5.571805497647523388e-09 4.576833641626394544e-09 9.528477439983151501e-10 3.102146528086441322e+02 6.969101266115467297e+02 -6.809073297308871133e+02
1.199999999999999992e-10 8.564947127669006807e-09 4.943311665588987996e-09 9.838182234747710498e-09 -3.734269058745328039e+03 -2.143185123844732971e+03 4.108825167699927079e+03
1.199999999999999992e-10 9.545721659625028634e-09 1.491595589586558740e-10 3.455171095663200523e-09 1.600411985060237384e+03 -6.330124852906760680e+02 -5.244154110351717009e+02
1.199999999999999992e-10 1.614375141353531171e-09 6.275090680266976905e-09 1.824218588861117941e-09 -1.304176523585767598e+02 2.846395335642511668e+02 -1.703377753573893187e+03
1.199999999999999992e-10 5.546101197883415705e-09 1.261066076000253535e-09 3.711257951010991758e-09 -1.713640868994810035e+03 1.437541265369339044e+03 -1.822899054877647814e+03
1.199999999999999992e-10 6.755648248823015246e-09 6.340134916118242908e-09 9.899756826244034939e-09 -1.443167491528730352e+03 -3.244298857398050131e+03 6.093387111891795485e+02
1.199999999999999992e-10 4.404687141011768546e-09 7.597209760149582209e-09 3.254544519543475800e-09 -5.168611007246086047e+02 -2.932920629392876890e+03 -2.335382220184240396e+03
1.199999999999999992e-10 6.524513922349771895e-09 6.490963252324527956e-09 5.913169349206849559e-09 -1.142360850128791526e+03 1.090927327585666035e+03 -2.899815277164533654e+03
1.199999999999999992e-10 3.112911057225958333e-09 5.057677500075541320e-10 6.000157395862761544e-09 1.305850470798404331e+03 -2.247129618430086339e+03 7.005166667787993902e+02
1.199999999999999992e-10 4.929136285347684995e-10 4.018076535731372228e-09 8.534869528120012950e-09 -1.811222735638243876e+03 4.976855926813494762e+02 -1.287224118069650558e+02
1.199999999999999992e-10 2.944715211192405777e-09 5.600927792421490481e-09 1.919454297643073490e-09 1.402556617074156065e+03 -3.031117714896025973e+03 5.224466855171172028e+02
1.199999999999999992e-10 8.839767101056364520e-09 6.456196453167334746e-09 4.558174742327288172e-09 2.243588365207983770e+03 -7.260494246375399143e+02 1.667446956426593374e+02
1.199999999999999992e-10 5.765160425649383211e-09 8.118819917697306136e-09 4.791973313691054022e-09 -2.093735242273510266e+03 1.397694067736307716e+03 2.088096033694740527e+03
1.199999999999999992e-10 2.261513299321775795e-09 3.714666450513234200e-09 5.695281893879675333e-09 -1.201202162265092056e+03 2.119443703061979818e+02 -6.881930499425325252e+02
1.199999999999999992e-10 2.604979834981108873e-09 8.795973179937532432e-10 9.775737661853730687e-09 1.335757043201577062e+03 -5.847235007887240954e+02 -1.460327580460929994e+03
1.199999999999999992e-10 4.985939609120971262e-09 6.167905436355105567e-09 2.508755145506335567e-09 5.346773796433416237e+01 -2.250245347625471823e+03 -3.929561379778484707e+02
1.199999999999999992e-10 1.350605980858096315e-09 3.298661107780719956e-09 5.980366623879493137e-09 -1.113103077284506526e+02 -5.083593363488018895e+02 -5.173814855901771352e+02
1.199999999999999992e-10 7.321490059622715864e-09 4.988842015117243641e-09 6.152976318331882069e-09 1.578259618409470022e+03 -3.445114341833852905e+02 5.891465488454965680e+02
1.199999999999999992e-10 7.561389840565484029e-09 9.117633074144423338e-09 3.916920986247583059e-09 -5.983546141084304963e+02 1.395587567305662560e+03 -6.424381120971824544e+01
1.199999999999999992e-10 9.838645328649804890e-09 6.011387293315236068e-09 5.610726740742692049e-09 5.415902488616607116e+02 1.495950133983961678e+03 9.881546863098395761e+01
1.199999999999999992e-10 2.703884547296436864e-09 8.594003108218975810e-09 6.733031160805834038e-09 1.351732613982424482e+03 -4.163946973381238195e+02 2.755089623375586598e+03
1.199999999999999992e-10 8.808921855803120729e-09 8.678137823535092612e-09 8.393744525950654901e-10 -8.479781644996446630e+02 2.289411191513189351e+03 7.340253331091912514e+02
1.199999999999999992e-10 7.311941704085024017e-09 3.092465364196771750e-09 4.672550720700419590e-09 -2.625446684904295012e+02 7.080872828254449587e+02 -2.001176518222439427e+02
1.199999999999999992e-10 1.048786983535841269e-09 5.480508070132718249e-09 8.677232289452510964e-09 1.946706701512425468e+02 1.807771682586200996e+03 -9.107357059483513240e+02
1.199999999999999992e-10 4.938801082791545348e-09 4.390088257651758100e-09 6.379348522929776457e-09 1.813486431632645463e+03 -8.969990995812499932e+02 -1.053246852082483429e+03
1.199999999999999992e-10 8.968442925086401291e-09 2.879046889807020315e-09 3.444495119593104916e-09 -3.820041584350659605e+02 -1.835725648932776153e+02 1.068718806539706520e+03
1.199999999999999992e-10 9.134444822305367371e-09 4.270787153233057567e-09 5.490076058648731972e-10 -3.334770720960493691e+02 -2.466623891652664952e+03 1.757637358085074993e+03
1.199999999999999992e-10 1.280846874435637430e-09 5.904225553452102855e-09 1.178744605855738346e-09 2.492891734194786011e+02 -4.328585122886763656e+02 7.149470065806900720e+02
1.199999999999999992e-10 9.588316332960044545e-10 9.273916066954077206e-09 6.029579964380688972e-09 -4.242552543765594919e+02 5.010467922118345996e+02 5.578208351047695714e+02
1.199999999999999992e-10 8.689972505765829268e-09 1.978258939789166121e-09 1.067318106053746341e-09 3.913940687309765849e+02 7.399596101205891046e+02 1.932091193839623600e+02