ITEM: TIMESTEP
100
ITEM: NUMBER OF ATOMS
100
ITEM: BOX BOUNDS f f f
0 1e-08
0 1e-08
0 1e-08
ITEM: ATOMS radius x y z v_x v_y v_z
1.199999999999999992e-10 5.234493337053864080e-09 9.379653210134422225e-09 8.562670360213536794e-09 1.056029318052236704e+03 -9.285423015378269156e+02 1.054182399200147302e+03
1.199999999999999992e-10 7.297044175972096399e-09 3.609402871100878268e-09 8.047605598456888290e-09 -2.496575994285884008e+03 -1.495584123718030924e+03 7.806605799469008389e+02
1.199999999999999992e-10 8.021342085970703909e-10 5.421859247234756201e-09 2.442733220561107808e-09 4.001736930172739903e+02 -8.217601763988976700e+02 -1.738382763265057292e+03
1.199999999999999992e-10 7.242487939816845466e-09 4.001902558843499175e-09 1.000878827170546742e-09 5.521487266070734279e+01 2.242091864930787892e+02 -2.165886841494560144e+02
1.199999999999999992e-10 2.902416325800418073e-09 5.754144998452663214e-09 4.307888136638606500e-09 -1.948031334846238906e+03 -1.114566327655774387e+02 -6.460558305899236302e+02
1.199999999999999992e-10 3.544631446378678177e-09 9.837813097893349778e-09 3.675487147064302932e-09 -4.718315762022371018e+01 3.935508583615888938e+02 2.555706185081605781e+03
1.199999999999999992e-10 4.186746125469591827e-10 9.810114824335563489e-10 3.789625036089711383e-09 2.133323610809618003e+03 -3.004800308179965668e+03 5.198014500202605177e+02
1.199999999999999992e-10 5.121085791414591557e-09 6.933740855598817830e-09 9.824324880034249072e-09 1.039061606066778950e+03 -3.876455590453646892e+03 8.730811385603884673e+02
1.199999999999999992e-10 4.192613667169668846e-09 9.373596714452811258e-09 1.024642972426523248e-09 1.244211761854122642e+03 1.064302023240240032e+03 -7.151253993604112793e+02
1.199999999999999992e-10 1.737963393528198560e-09 7.350151554796859224e-09 4.317908797578270830e-09 -2.202977537229658367e+02 -3.385688643812765804e+03 2.042330483414323226e+03
1.199999999999999992e-10 4.841610496816085401e-09 1.161340149924621398e-09 9.798965820079536017e-09 2.150613998052464524e+02 -1.570686022079212989e+03 -1.628062911513624385e+03
1.199999999999999992e-10 1.728478688489541078e-09 9.331910968697666852e-10 4.194994998048086862e-10 -8.860371091813411795e+02 -2.572423944741223067e+01 -1.354940591810068781e+03
1.199999999999999992e-10 7.225606890733454672e-09 6.297458151177038013e-09 2.388545277966979947e-09 4.926678790172860545e+02 -1.231290849718504205e+03 -4.424483894876123486e+03
1.199999999999999992e-10 2.425422852652269191e-09 9.652242018726302390e-09 5.782996453907593864e-09 3.380798743359948730e+02 -4.536853452184325306e+02 -4.736271446230891229e+02
1.199999999999999992e-10 3.336123018975421901e-09 1.614912447235121573e-10 8.504984276702371044e-09 -9.221580973378679573e+02 -1.691863438014549047e+03 -3.726904761674159090e+03
1.199999999999999992e-10 7.753769593440269633e-09 8.222399296548199130e-09 4.257071835663011389e-09 -6.624783527365154896e+02 -9.675987081666321501e+02 -9.248207080409674745e+02
1.199999999999999992e-10 9.510014979843790847e-09 8.030379096027650249e-09 9.425485202440375549e-09 -3.565513192213708749e+01 6.449498428924412963e+01 -9.498879499407573803e+02
1.199999999999999992e-10 6.094414748307392956e-09 4.615303703470123913e-09 2.176103677038827221e-09 -1.641068385837734240e+03 5.806229412016760989e+02 -1.315083399483783523e+03
1.199999999999999992e-10 9.488597057557632840e-09 7.985786782698292641e-09 3.940596340743149041e-09 6.069948532661079525e+02 5.178389858572998037e+02 -1.142838501228557334e+03
1.199999999999999992e-10 4.142876369532460694e-10 6.977243174048690564e-09 7.650040140683666002e-09 4.260364003437505289e+02 -2.972535667477609422e+02 1.949085638512478681e+03
1.199999999999999992e-10 7.979974725819701200e-09 7.313836599887377909e-09 4.064621431344540656e-09 -7.357231386274675060e+02 -1.458016599238807203e+02 8.231315749554714500e+01
1.199999999999999992e-10 6.193171628384316137e-09 9.726724044736281398e-09 3.215583987905308992e-09 1.528268524255922557e+03 7.467440531151617051e+02 -8.436021596980385766e+02
1.199999999999999992e-10 1.844094816028910145e-09 4.317328267307714532e-10 2.482079791916806060e-09 -2.601281553436746435e+03 -6.449043975254481893e+02 -3.690935580293287330e+02
1.199999999999999992e-10 8.068977751999053685e-09 5.885228416904749650e-09 8.518664613761103070e-09 -1.226850472590160507e+03 -2.430318023089205781e+03 -1.983844048074542570e+03
1.199999999999999992e-10 3.329954172192458581e-09 9.798543726210479054e-09 5.868346449277169475e-09 -1.209202648910668131e+03 8.402872722668648748e+02 7.079450696726926253e+02
1.199999999999999992e-10 4.367519418579947745e-09 1.417298364957916682e-09 9.568671493096434015e-09 -1.938877680583223992e+03 2.079429930816612341e+03 2.090043752129543009e+01
1.199999999999999992e-10 7.969517914043170735e-09 2.678970955570815129e-09 8.643870112282966509e-09 -1.228582525093683444e+03 -6.334318191533104709e+02 1.729435782438575643e+03
1.199999999999999992e-10 1.484827587482916638e-09 2.607334572097207069e-09 5.606089630479867977e-09 4.639507324506167834e+02 -2.573343019848973654e+03 1.409434932034941539e+03
1.199999999999999992e-10 3.184027026593803847e-09 6.723873974848992689e-09 7.264467163003821612e-09 -2.098718079892347305e+03 -2.859275571226106877e+03 -1.006409643912963361e+03
1.199999999999999992e-10 4.669045881482643050e-09 3.070333145386431211e-10 4.726096796901708844e-09 -1.772031787406168178e+03 5.148525460636120442e+03 -1.207880379528381354e+03
1.199999999999999992e-10 8.688966766599027800e-09 2.490813181783623193e-09 3.070479091462247503e-09 1.744532155867616893e+03 -2.262590012733919593e+03 -1.797857064865434950e+03
1.199999999999999992e-10 4.806412347880195903e-09 7.295223321162662596e-09 8.123009130799496641e-09 -1.404804295462955679e+03 4.667750443457691176e+02 1.243738289542315897e+03
1.199999999999999992e-10 4.003184970574198420e-09 1.338948850623019625e-10 8.191780614584009179e-09 -3.213081337222049001e+02 2.457556250279879748e+02 4.152615102108819656e+02
1.199999999999999992e-10 7.221526608627387633e-09 9.809640485158202055e-09 1.860664874187601898e-09 -3.645024242056611001e+03 1.566418789732991399e+03 -5.182510862913984511e+02
1.199999999999999992e-10 6.929977953368211892e-09 2.109110525166653454e-09 6.630212445256639437e-10 1.853903020151898772e+03 9.755153085002316402e+02 3.900362890595851013e+02
1.199999999999999992e-10 1.910261151421418358e-10 6.199830769427177840e-09 2.549232651062047703e-09 1.070406333080290096e+03 3.981843306002373879e+02 -9.036873641356288545e+01
1.199999999999999992e-10 1.225215810036415678e-10 1.584182464745641882e-09 9.391521721711370989e-10 6.748689026292089466e+02 -1.834381367138759742e+03 -1.399746131718690663e+02
1.199999999999999992e-10 8.045445471845882125e-09 9.566323343943323108e-09 7.860643822277635527e-09 -7.434512373263847849e+02 -1.045936454762325241e+02 1.147866113654470610e+03
1.199999999999999992e-10 5.875860666281031846e-10 2.978608670671787274e-09 4.969801326105449083e-09 -2.475681951970294449e+03 -2.019819538640730798e+03 -4.910009030047035026e+02
1.199999999999999992e-10 9.245093223322427844e-09 7.249728170710311017e-09 9.298125219021645339e-09 3.687083950592473229e+02 9.587231741852825735e+02 2.915299219292862745e+02
1.199999999999999992e-10 7.041121012566502108e-10 9.642614696551085644e-09 3.191543568987793460e-09 1.675810097154175310e+03 1.554508151746475050e+03 2.854863640758732117e+02
1.199999999999999992e-10 1.163630261691616574e-09 1.918070168735646480e-09 4.771730323505515543e-09 -3.009430954249324373e+02 7.084515411349275382e+02 -1.216759669949800013e+02
1.199999999999999992e-10 1.911292368250750337e-09 2.530832611863685774e-09 2.564062018810584008e-09 -1.371450877227733599e+03 -1.018288413075497829e+03 -1.822011260915062394e+03
1.199999999999999992e-10 6.725989630720028111e-09 4.621044790048636602e-09 5.265976959492737021e-09 -1.315688682460745213e+03 4.425241625459048009e+02 -1.674898089454626188e+03
1.199999999999999992e-10 8.029815918096553507e-09 4.711337781250952295e-09 7.334760188327656520e-09 1.125182839209520807e+03 -2.314643993366491486e+03 8.560056663057772539e+02
1.199999999999999992e-10 3.769802132865209016e-09 8.404440175052833305e-09 9.050905056049280800e-09 -3.452586939352255513e+02 -7.410252342489326338e+02 -6.388238374283127996e+02
1.199999999999999992e-10 2.840087539345546862e-10 5.677358066535541580e-09 5.616353339339039612e-09 -4.324941999140162352e+02 -9.068528617961810596e+02 2.776166446438088542e+02
1.199999999999999992e-10 4.888286963783153528e-09 9.627838144613319560e-09 3.518423140445389056e-09 9.936176219962741243e+02 -5.244917728075425885e+02 9.842410013526499597e+02
1.199999999999999992e-10 6.924549799924717855e-09 6.035580185321178364e-09 9.147027902152341896e-09 -7.566260977738743350e+02 -1.629390149965192222e+03 -6.537151803427930190e+02
1.199999999999999992e-10 2.906033175808019307e-09 3.919691477279923378e-09 9.343223166287110670e-09 3.416953746381996098e+03 9.776552108941148163e+02 8.075870603228798927e+02
1.199999999999999992e-10 9.701086658312960651e-09 2.223774882544229192e-09 3.705124474771697222e-09 3.162672830250638754e+02 -7.100131577402096354e+02 -1.183542577268108062e+03
1.199999999999999992e-10 4.408046566192697037e-09 2.727431219083250219e-09 2.663271079073536930e-09 9.562062532253627296e+02 2.669865122131618591e+03 -1.747165433194445313e+03
1.199999999999999992e-10 5.985218933106706878e-09 2.220321266263495835e-09 6.651400596917224199e-09 -1.773424694518892920e+03 1.183666632854620957e+03 -3.497349677498094138e+02
1.199999999999999992e-10 9.825949229163832537e-09 1.506302525861616180e-09 8.962109648102223378e-10 -3.621604901324679304e+03 -1.568952617375627142e+03 1.195048366640555884e+02
1.199999999999999992e-10 7.383153239335988255e-09 4.411630441289783739e-09 2.425625724574935365e-09 6.188436912504108989e+01 -1.255204545837679234e+03 3.107747649489804189e+02
1.199999999999999992e-10 5.339173282902696308e-10 4.173805446182108055e-09 7.192249256634195332e-09 1.013700825459454791e+03 2.922949426347433018e+03 -1.194541912897418570e+03
1.199999999999999992e-10 7.666193161155440609e-09 5.496380869295086138e-09 7.522920481592239319e-10 7.066690091576200530e+02 6.945689666924379253e+02 -7.170545728134576393e+02
1.199999999999999992e-10 9.247518854284189226e-09 2.390175111261114231e-09 2.823293234502010921e-09 -1.715144233024188225e+03 1.035051360160245849e+03 3.045903843489903693e+02
1.199999999999999992e-10 3.673471366281955738e-09 9.071210286796369189e-09 9.855480427067335385e-09 6.456402117201771489e+02 -1.856552560454563945e+03 7.682994608591718588e+01
1.199999999999999992e-10 3.821611588661364878e-10 2.355774930142810523e-09 4.855610397696648241e-09 -6.875164996359641236e+02 -4.262150231955470758e+02 -8.731028591793524356e+02
1.199999999999999992e-10 4.057847526816281457e-09 3.110695977794424952e-09 2.269656545410978910e-09 -2.427453340061518247e+03 1.434217391048867739e+03 1.620853265254704638e+02
1.199999999999999992e-10 7.792550666637117306e-09 3.088670389873360019e-09 9.005859699110393378e-09 9.014923190291833635e+02 3.680158765159974905e+02 -4.998859330903658247e+02
1.199999999999999992e-10 9.945882975419872437e-09 7.364003118872968533e-09 9.221704451116578728e-09 9.301185933337642382e+02 5.253920178568600932e+02 -2.784994492577029177e+03
1.199999999999999992e-10 3.736095353577926022e-09 5.524731130286353050e-09 6.751837538903494678e-09 4.453145149654491775e+02 1.810378933936382964e+03 2.037689611156357046e+02
1.199999999999999992e-10 6.744891749809852270e-09 8.089238378010877847e-09 9.780837778170140767e-09 -7.479592531783330287e+02 1.430005823883948096e+03 5.355678251842783766e+02
1.199999999999999992e-10 4.571078804196148620e-09 9.065371450691442489e-09 8.755951559309712054e-09 1.157850607269452667e+03 6.517227767234485327e+02 -2.119145873657318134e+03
1.199999999999999992e-10 6.062373346190161461e-09 4.625728205101205214e-09 6.728073735212123543e-09 1.078394577424593763e+03 1.410088937711922199e+03 -3.572114937665416619e+03
1.199999999999999992e-10 7.883293404870460361e-09 5.092013023163447085e-09 8.631794465035515377e-09 2.047153100637818852e+02 -2.969247987395746350e+03 -1.563334108172603010e+03
1.199999999999999992e-10 9.591164034808197578e-09 1.075528237741109876e-09 8.228562118661483940e-09 2.598988915407414424e+03 1.857545117635778524e+03 -1.972072169180715946e+03
1.199999999999999992e-10 9.162033744741018523e-09 6.860849573423037042e-09 6.918238843933492473e-09 -1.271415857478249109e+03 1.275572085618335223e+03 2.275688425363543104e+02
1.199999999999999992e-10 4.668781614136678977e-09 3.177165015166268187e-09 4.948578922618213203e-09 -1.667541524292337499e+03 5.754476230854462528e+02 -1.182714606360720836e+03
1.199999999999999992e-10 2.472328272774881826e-09 8.369055386678671303e-09 5.587899343904516517e-10 -1.872322321596120673e+03 1.639687306202422860e+03 -5.861474023951006984e+02
1.199999999999999992e-10 1.454715732691585041e-09 6.752459821040448134e-09 3.044262486914979984e-09 -9.628549611838990359e+02 -2.029432410278410543e+03 1.933178466133597340e+03
1.199999999999999992e-10 3.602401736577535858e-09 3.233278070112907786e-09 5.650999917209979436e-09 -1.557874597641368382e+03 1.955149024957805182e+00 -1.076241673962761979e+03
1.199999999999999992e-10 6.397332610270087827e-09 3.830231958598204686e-09 9.691640943121548739e-09 -1.169130002386265460e+03 -5.663527582040950392e+02 5.513089759580810778e+02
1.199999999999999992e-10 4.956979830804540520e-09 3.021085771068937312e-09 6.806181829974521438e-09 1.993007178707305229e+03 1.886345697989606833e+03 1.223657838243640867e+02
1.199999999999999992e-10 9.389715271738196744e-09 5.731006594130160725e-09 6.694587311602201231e-09 2.003606080446933674e+03 -1.504996314690170493e+03 6.838562116368125317e+02
1.199999999999999992e-10 9.310381789100392871e-09 5.932000434530622320e-09 1.516780006741219253e-09 -4.686864766643888629e+02 5.210462108902313503e+02 4.580813749423065815e+02
1.199999999999999992e-10 9.224547376592037248e-09 1.233095377787236706e-10 7.674758890563133284e-09 2.757303172906341615e+02 -7.913824308898354047e+02 -1.989379398381539204e+03
1.199999999999999992e-10 8.759349200141111744e-09 7.986031717271191738e-09 9.262547549249408531e-09 3.485327219610826432e+02 -2.070481295590253922e+03 -4.332807888016961897e+02
1.199999999999999992e-10 9.203298482804730510e-09 2.854656929379274484e-09 1.027165554006379512e-09 -2.141905732127202100e+03 -1.870715838314036432e+02 -5.115582947210702969e+02
1.199999999999999992e-10 1.398068576196542474e-09 8.430487386706307490e-09 9.382074877932242310e-09 -6.974222226485638885e+02 5.962454262061821737e+02 -1.350031951174362575e+03
1.199999999999999992e-10 2.771493855018572913e-09 3.697046735935220224e-10 5.311737914941972059e-10 2.134381848261888877e+02 -2.254599657332640163e+03 1.486760812391342142e+03
1.199999999999999992e-10 5.091162839024375065e-09 3.011631392921233476e-09 1.179886910667339781e-09 -1.785368749943216244e+03 -2.412867531233432146e+03 1.049608700036633309e+03
1.199999999999999992e-10 7.413356030658691806e-09 6.025216800635663296e-09 2.195319858596542529e-09 -8.221295559736715859e+02 -2.676336105288820590e+02 2.706773715526778687e+03
1.199999999999999992e-10 8.320654093443486330e-09 9.161584539260065928e-09 3.448440563055094965e-09 -8.743940542685919581e+02 1.492985198627506179e+03 -9.878761033276480248e+02
1.199999999999999992e-10 5.894559681212094824e-09 1.451977041782401166e-09 5.253453035927985046e-10 2.227058508167481250e+02 1.426866433826655339e+03 -2.065597059273961236e+02
1.199999999999999992e-10 4.283676706412457158e-09 3.516493475128940494e-09 5.241708065689968772e-09 -1.520450519061626437e+03 -7.045260512631891743e+02 -9.646732268399548502e+02
1.199999999999999992e-10 3.974602512953660673e-09 2.993944459264419422e-09 5.829467823756810882e-10 -1.429766218909698409e+03 2.104777269324693407e+03 -3.954396122041318336e+02
1.199999999999999992e-10 1.285129901469925442e-09 7.208024727870243882e-09 1.657608417121287619e-09 -2.271431559002525319e+03 2.176378206580565347e+03 1.158978370156403798e+03
1.199999999999999992e-10 7.401432276921622921e-09 8.583173743310558748e-09 2.044539500159228855e-09 -2.529837478735438481e+02 -1.472721211151220359e+03 -2.597775027669032966e+02
1.199999999999999992e-10 6.952151508938113643e-09 7.030940860141567232e-09 3.063871066585843143e-09 5.059815431542884880e+02 -1.298352652301708076e+03 -1.117414421309180170e+02
1.199999999999999992e-10 4.147181051827308631e-09 6.395282901155974524e-09 4.337914298904977159e-09 2.043317777374345496e+03 6.968616629976892227e+02 -2.348559459203193455e+03
1.199999999999999992e-10 9.184204949778346732e-09 6.813891005572868648e-09 9.315103810669292549e-09 -3.892468843380825092e+02 1.713870077508784107e+03 -5.999366498458036858e+02
1.199999999999999992e-10 4.419530604030730485e-09 2.968999650172915672e-10 9.745044439358130194e-09 2.190166013362315027e+02 1.030964382496094004e+03 -9.555931245112927854e+02
1.199999999999999992e-10 7.686538549009676792e-09 3.353241130695677260e-09 6.763808251877816927e-09 -1.764219003534785202e+02 1.532143035951451566e+03 -1.012606915583974342e+03
1.199999999999999992e-10 8.202212398896391642e-09 8.524894826790889250e-09 7.945074043755675382e-09 -9.152031995553591059e+01 1.432686556141192568e+03 -1.350525599969441828e+03
1.199999999999999992e-10 7.938539313397033283e-09 9.488472523001750833e-09 6.769232392223224601e-10 -8.484315808313372145e+02 7.794586804257193080e+02 1.806790256769739244e+03
1.199999999999999992e-10 1.821248912735699695e-09 2.179392768200277491e-09 8.501105997474008979e-09 1.324594632039115822e+03 -8.736840216286999521e+02 1.765381066978274248e+03
1.199999999999999992e-10 8.218702361361250529e-09 5.044728962377400760e-09 2.524245534342094670e-10 1.205209806432585253e+02 6.605800179078173642e+02 -9.221476247902018031e+02
ITEM: TIMESTEP
200
ITEM: NUMBER OF ATOMS
100
ITEM: BOX BOUNDS f f f
0 1e-08
0 1e-08
0 1e-08
ITEM: ATOMS radius x y z v_x v_y v_z
1.199999999999999992e-10 5.356749544856342793e-09 9.363121811546316365e-09 8.488615667164836322e-09 3.354727111023559587e+02 1.020861322398084894e+03 -1.649153942370286359e+03
1.199999999999999992e-10 7.122144528967509119e-09 3.460215675517861940e-09 8.135257096054339166e-09 -5.205642456214659433e+02 -5.907267709883998350e+02 8.695846812379855919e+02
1.199999999999999992e-10 6.731573010899652922e-10 5.423714724597446698e-09 2.306887731247712311e-09 -1.324394242914137521e+03 5.482306507508681079e+02 5.548565867182592228e+02
1.199999999999999992e-10 7.295148061466607793e-09 3.946884082700457152e-09 8.602364331774386903e-10 2.847035047985426104e+02 -2.070369217984564784e+03 -1.257451567488197384e+02
1.199999999999999992e-10 2.711562078632885776e-09 5.743024683000486466e-09 4.286448579958064116e-09 -7.217680918998715924e+02 -4.560805435624179154e+02 3.460993185942823516e+02
1.199999999999999992e-10 3.558411913025889906e-09 9.980038747841967482e-09 3.948341422221653428e-09 1.501105368859541159e+03 1.387480842088334612e+03 2.057064331322347698e+03
1.199999999999999992e-10 5.579831060535469083e-10 8.498474985484514111e-10 3.735480482178153988e-09 1.208444670631557074e+03 1.036960511071453652e+02 -1.724405511695544192e+03
1.199999999999999992e-10 5.182714187920850134e-09 6.898317321140966481e-09 9.891527758008991995e-09 1.256129015143334982e+03 6.551388172452234357e+02 1.167065030946607749e+03
1.199999999999999992e-10 4.288028856333258909e-09 9.459099865684567083e-09 1.042523965044996781e-09 1.119271179099872597e+02 -1.315746039507896057e+03 -7.112617797833472650e+02
1.199999999999999992e-10 1.714799464975228534e-09 7.168021045883310017e-09 4.380125261030937768e-09 1.726409947862313629e+03 -1.017612092299174037e+03 1.710165743602502516e+03
1.199999999999999992e-10 4.727053040055040210e-09 1.149706835786939741e-09 9.636112304123965647e-09 3.488161094057135756e+02 -1.314929666024097514e+02 -1.790187154158390967e+03
1.199999999999999992e-10 1.447024287712246227e-09 8.852478625788026633e-10 2.710664214657146235e-10 -5.476871322871298617e+03 -2.009323789635525145e+03 -1.300318155768963379e+03
1.199999999999999992e-10 7.303204423646220010e-09 6.270788622911337097e-09 2.042174588108618614e-09 1.783491453455778242e+01 -2.235467720998464074e+02 -2.315873425981701530e+03
1.199999999999999992e-10 2.584295641042655242e-09 9.626140187791498728e-09 5.835596456760768516e-09 1.161314978536451690e+03 -1.144691037503471762e+03 4.212720160428527834e+02
1.199999999999999992e-10 3.349986980549200899e-09 1.249033258313650121e-10 8.343577587716905063e-09 -2.075403478212080870e+02 2.665918807543160938e+02 -1.930469055388438846e+03
1.199999999999999992e-10 7.725141551709616207e-09 8.048201274248558913e-09 4.236447643094521155e-09 1.737161747042127445e+03 -1.304059117101881384e+03 8.988644083567254484e+02
1.199999999999999992e-10 9.375398879544640054e-09 7.893228346018022778e-09 9.442159759555911296e-09 -1.189982752563154008e+03 -2.131954572544379062e+03 1.132838270882689358e+03
1.199999999999999992e-10 5.912692543414355403e-09 4.723817586108545917e-09 2.047239222874694470e-09 -1.220235349675438101e+02 -5.814775822045411360e+02 -5.949298340925317916e+02
1.199999999999999992e-10 9.435882495089101352e-09 8.131124708731119863e-09 3.912275126342606939e-09 4.011872839607065089e+02 1.922140109301907160e+03 9.641931419609866225e+02
1.199999999999999992e-10 4.395453271401153943e-10 6.985715448978220953e-09 7.663897144558883164e-09 -1.300977723232726078e+02 1.166007414532494749e+03 3.350222634814161324e+02
1.199999999999999992e-10 7.952231000784077739e-09 7.220566525643639310e-09 4.017931048309480564e-09 -1.437041374495789341e+03 -4.478822684754250076e+02 -1.124110063879120389e+03
1.199999999999999992e-10 6.289820817522191262e-09 9.824933980812370205e-09 3.158665361143157632e-09 1.364864447932424127e+02 -5.796314575458847003e+02 -2.415310031803455331e+03
1.199999999999999992e-10 1.653943938860779308e-09 3.364013037998124943e-10 2.399699526830519417e-09 -2.153483831529005784e+03 -1.912249168330441080e+03 -3.130249267209169943e+02
1.199999999999999992e-10 7.978840655609582735e-09 5.676067935525098624e-09 8.382336388846715088e-09 -1.567758427601275571e+03 -1.281490932003215676e+03 2.748199644904054253e+02
1.199999999999999992e-10 3.247650062029073119e-09 9.878741936937565725e-09 5.952525763383279187e-09 -3.738300536515547492e+02 1.308772265468729984e+03 2.093562240733970157e+03
1.199999999999999992e-10 4.143670729232035766e-09 1.382198728453151340e-09 9.500549039751812418e-09 -1.807671396550987311e+03 -1.790821877788994016e+03 -7.685679868777129968e+02
1.199999999999999992e-10 7.988816816331813419e-09 2.551126528440727021e-09 8.640151869761038321e-09 6.648378341565762639e+02 -5.931831787600333428e+01 -3.859456796484557799e+02
1.199999999999999992e-10 1.551193022415779642e-09 2.486169587017824820e-09 5.822933216007071947e-09 3.556260391359327286e+02 -1.152639441147932530e+03 1.741183609345366222e+03
1.199999999999999992e-10 2.980084261678786488e-09 6.672025552007030500e-09 7.047451973031224019e-09 -8.053397735303981335e+02 3.678334323262867542e+02 -1.442878263033738904e+03
1.199999999999999992e-10 4.483516904631011694e-09 6.006635901605005826e-10 4.894662540570927787e-09 -3.063813689325023461e+03 1.805907314385218797e+03 2.196172989089310249e+03
1.199999999999999992e-10 8.845950704045284866e-09 2.331102179498945825e-09 2.908721495308267056e-09 2.687639722953171599e+02 -4.858214591253137655e+02 -7.641991676795285002e+02
1.199999999999999992e-10 4.605917409913922753e-09 7.165866769990755091e-09 8.060807785204830970e-09 -2.470305445072989642e+03 -1.576814414178016477e+03 -2.215973873310286308e+03
1.199999999999999992e-10 3.925655863413198702e-09 3.662985231078806611e-10 8.261457786889503944e-09 -2.693010914123932480e+02 2.171561875500791757e+03 3.743362860610752705e+02
1.199999999999999992e-10 6.987119583002229235e-09 9.947673025533643548e-09 1.932134524174387123e-09 -1.941515987029044254e+03 -4.292603548630310797e+03 1.053517199498315449e+03
1.199999999999999992e-10 6.915896202003173054e-09 2.234492367387687334e-09 8.687224066275090152e-10 -5.237196635973070897e+02 9.974252938107986211e+02 3.168213641739645482e+03
1.199999999999999992e-10 1.822324251315557331e-10 6.176819651584167577e-09 2.654142469084804206e-09 -2.220486882209434896e+02 -6.027229625171103180e+02 1.614415465072967663e+03
1.199999999999999992e-10 1.956888725561544389e-10 1.400457744779624119e-09 1.001689944637498793e-09 7.270920051782538849e+02 -5.142686566811426019e+02 1.743678869866915420e+03
1.199999999999999992e-10 7.943758870522359190e-09 9.596186828207395254e-09 7.956531163689289870e-09 -6.077939630145153842e+02 2.723349782810388660e+03 1.325050808716037182e+03
1.199999999999999992e-10 5.928777155777457252e-10 2.820268947406927641e-09 4.995189399039734515e-09 5.431827211846177761e+02 -1.381287754014728989e+03 6.593665938423894204e+02
1.199999999999999992e-10 9.080951372856418705e-09 7.299439220798735953e-09 9.421723859209819424e-09 -2.967563532446672070e+03 -1.670423186407983621e+03 1.376393029469680869e+03
1.199999999999999992e-10 8.582278758638040213e-10 9.717868901042066550e-09 3.156044522768636857e-09 2.267318549606597571e+03 4.965393161342587405e+02 -6.246076719160695347e+02
1.199999999999999992e-10 1.226799258623883881e-09 1.997812731534074805e-09 5.018459965076052440e-09 8.246106515937840413e+02 -5.764831645701419802e+02 1.772950704649402496e+03
1.199999999999999992e-10 1.727595278658470392e-09 2.305711568533915067e-09 2.476289953391849471e-09 -2.241904729093596416e+03 -1.864296813632390240e+03 1.252607887213544245e+03
1.199999999999999992e-10 6.584544904256753739e-09 4.689154862481790222e-09 5.194935741347856789e-09 -8.671651544985935516e+02 5.829365503127419288e+02 -1.227460091512275767e+03
1.199999999999999992e-10 8.186239302387618618e-09 4.520626571941810783e-09 7.353696697868571593e-09 1.851178764865717767e+03 4.655425033985928280e+02 -3.296362363606293115e+02
1.199999999999999992e-10 3.667195735045552875e-09 8.359461162823949320e-09 9.093260618619649756e-09 -3.045334835048874538e+03 -7.501843840821335334e+02 9.497618363938570383e+02
1.199999999999999992e-10 3.216819909316003188e-10 5.694377636958095584e-09 5.552269728417000613e-09 7.607230572463611225e+02 3.712639503055814316e+02 -2.904736229636777125e+02
1.199999999999999992e-10 4.956423302188713232e-09 9.470219071534089775e-09 3.516435692732501755e-09 1.317229885186619640e+03 -1.692209571712560546e+03 2.163216511435096891e+03
1.199999999999999992e-10 6.780031215943295202e-09 6.061760370180815227e-09 9.076470293397943017e-09 -6.611705429526750777e+02 -2.172926440992906123e+02 -2.361441900348734180e+03
1.199999999999999992e-10 2.957311178513449195e-09 4.086360257806427714e-09 9.373017853533229711e-09 -7.510321284714318608e+02 1.997779519643945378e+03 5.083562248998526911e+02
1.199999999999999992e-10 9.590385920354490350e-09 2.199176712750195496e-09 3.631375527524639753e-09 -1.005149787972226818e+03 -5.782877975111152864e+02 -7.249159022657701144e+02
1.199999999999999992e-10 4.572958658998547862e-09 3.022071204304137184e-09 2.587171205104753493e-09 2.736871173271028965e+03 2.661929774476188868e+03 -6.440942468579769411e+02
1.199999999999999992e-10 5.846700595092568073e-09 2.412186482350087283e-09 6.465261326989967915e-09 -9.965995776430168007e+01 2.331929733984288760e+03 -1.458867087912150282e+03
1.199999999999999992e-10 9.543877882594991723e-09 1.278613463213351524e-09 9.670418952465081631e-10 -2.261186610062695308e+03 -4.518119184242692427e+03 2.001827395329198907e+03
1.199999999999999992e-10 7.365841252570721273e-09 4.419115722408578612e-09 2.448396050622191944e-09 5.940432159147032962e+02 -4.471773630460754134e+02 -5.908352010655711410e+02
1.199999999999999992e-10 7.528905790910728202e-10 4.393227194671135893e-09 7.118217761767269933e-09 1.331007704295514259e+03 2.501502262871999392e+03 1.095113017450086772e+03
1.199999999999999992e-10 7.677840414751017310e-09 5.469055663659354628e-09 6.071757409149075759e-10 -1.661890738067031180e+03 -2.069715272047211784e+03 -2.903595395120546073e+03
1.199999999999999992e-10 9.140709282046071842e-09 2.364477686355469451e-09 2.832790083233539219e-09 1.296009820670637396e+02 -2.049832792736137890e+03 -1.180345512966285014e+03
1.199999999999999992e-10 3.578431325705072651e-09 9.035719421267355056e-09 9.884053356704762745e-09 -2.391382506116513468e+03 1.036204125765940717e+03 6.726344897857765091e+02
1.199999999999999992e-10 4.733357981227004128e-10 2.305877469429247035e-09 4.727044801433344485e-09 3.198496312509494601e+03 6.551024012789259814e+02 -2.288985744930533201e+03
1.199999999999999992e-10 3.840084498960259226e-09 3.247098796909330337e-09 2.130797860368333294e-09 -4.336994107146813917e+02 2.793203794425248816e+03 -5.510935546246059857e+02
1.199999999999999992e-10 7.957115438039215792e-09 3.197607728143635586e-09 9.041926179465430355e-09 1.687006343409574583e+03 1.085406702319815395e+03 -2.389928243688488294e+02
1.199999999999999992e-10 9.991921382542155473e-09 7.480521640155121179e-09 9.036614019834352949e-09 1.734705539351082280e+03 8.647666178180767247e+02 -2.331888535400961246e+03
1.199999999999999992e-10 3.820426520107113703e-09 5.616779856335272985e-09 6.622954949339742462e-09 2.550904495237637093e+02 -1.788474475251168485e+02 -5.344183206129071095e+02
1.199999999999999992e-10 6.748135578516573976e-09 7.981572605028471658e-09 9.736517031097674466e-09 -2.073275696462306314e+03 2.391442387066967115e+02 -2.674485317472178849e+03
1.199999999999999992e-10 4.556260841342017991e-09 9.003968226039214438e-09 8.608999130712712464e-09 -7.140938696468539320e+02 -3.050181064962312689e+02 -8.704966515223595707e+02
1.199999999999999992e-10 5.913410880306744570e-09 4.837645963909785315e-09 6.469561822068677778e-09 -1.920284967648965221e+03 1.914517452962861398e+03 -1.217877051898399486e+03
1.199999999999999992e-10 7.910444418508411454e-09 4.859868850102422057e-09 8.733610804087702257e-09 2.961801175676494609e+02 5.550916185254101265e+01 2.543956497511678663e+03